
     Program PWSCF v.7.1 starts on 16Jul2022 at 18:22: 0 

     This program is part of the open-source Quantum ESPRESSO suite
     for quantum simulation of materials; please cite
         "P. Giannozzi et al., J. Phys.:Condens. Matter 21 395502 (2009);
         "P. Giannozzi et al., J. Phys.:Condens. Matter 29 465901 (2017);
         "P. Giannozzi et al., J. Chem. Phys. 152 154105 (2020);
          URL http://www.quantum-espresso.org", 
     in publications or presentations arising from this work. More details at
     http://www.quantum-espresso.org/quote

     Parallel version (MPI), running on    64 processors

     MPI processes distributed on     2 nodes
     337532 MiB available memory on the printing compute node when the environment starts
 
     Reading input from /nfs/home/trewicedwa/qe/GdN-FCC_sfc.in

     Current dimensions of program PWSCF are:
     Max number of different atomic species (ntypx) = 10
     Max number of k-points (npk) =  40000
     Max angular momentum in pseudopotentials (lmaxx) =  4
 
     K-points division:     npool     =       4
     R & G space division:  proc/nbgrp/npool/nimage =      16
     Subspace diagonalization in iterative solution of the eigenvalue problem:
     a serial algorithm will be used

 
     Parallelization info
     --------------------
     sticks:   dense  smooth     PW     G-vecs:    dense   smooth      PW
     Min          61      61     18                 1266     1266     204
     Max          62      62     19                 1269     1269     206
     Sum         979     979    295                20275    20275    3287
 
     Using Slab Decomposition
 

     Title: 
     GdN_FCC-scf                                                                


     bravais-lattice index     =            2
     lattice parameter (alat)  =       9.4467  a.u.
     unit-cell volume          =     210.7589 (a.u.)^3
     number of atoms/cell      =            2
     number of atomic types    =            2
     number of electrons       =        23.00
     number of Kohn-Sham states=           16
     kinetic-energy cutoff     =      80.0000  Ry
     charge density cutoff     =     320.0000  Ry
     scf convergence threshold =      1.6E-09
     mixing beta               =       0.4000
     number of iterations used =            8  plain     mixing
     Exchange-correlation= PBE
                           (   1   4   3   4   0   0   0)

     celldm(1)=   9.446741  celldm(2)=   1.000000  celldm(3)=   1.000000
     celldm(4)=   0.000000  celldm(5)=   0.000000  celldm(6)=   0.000000

     crystal axes: (cart. coord. in units of alat)
               a(1) = (  -0.500000   0.000000   0.500000 )  
               a(2) = (   0.000000   0.500000   0.500000 )  
               a(3) = (  -0.500000   0.500000   0.000000 )  

     reciprocal axes: (cart. coord. in units 2 pi/alat)
               b(1) = ( -1.000000 -1.000000  1.000000 )  
               b(2) = (  1.000000  1.000000  1.000000 )  
               b(3) = ( -1.000000  1.000000 -1.000000 )  


     PseudoPot. # 1 for Gd read from file:
     /nfs/home/trewicedwa/qe/pseudo/Gd.GGA-PBE-paw-v1.0.UPF
     MD5 check sum: 3e8e0d208da550914ae52eaf991d13de
     Pseudo is Projector augmented-wave + core cor, Zval = 18.0
     Generated using ATOMPAW code
     Shape of augmentation charge: BESSEL
     Using radial grid of 1110 points,  8 beta functions with: 
                l(1) =   0
                l(2) =   0
                l(3) =   1
                l(4) =   1
                l(5) =   2
                l(6) =   2
                l(7) =   3
                l(8) =   3
     Q(r) pseudized with 0 coefficients 


     PseudoPot. # 2 for N  read from file:
     /nfs/home/trewicedwa/qe/pseudo/N.oncvpsp.upf
     MD5 check sum: 563d65bfb082928f0c9eb97172f6c357
     Pseudo is Norm-conserving + core correction, Zval =  5.0
     Generated using ONCVPSP code by D. R. Hamann
     Using radial grid of 1058 points,  4 beta functions with: 
                l(1) =   0
                l(2) =   0
                l(3) =   1
                l(4) =   1

     atomic species   valence    mass     pseudopotential
        Gd            18.00   157.25000     Gd( 1.00)
        N              5.00    14.00670     N ( 1.00)

     Starting magnetic structure 
     atomic species   magnetization
        Gd           0.278
        N            0.100

     48 Sym. Ops., with inversion, found


                                    s                        frac. trans.

      isym =  1     identity                                     

 cryst.   s( 1) = (     1          0          0      )
                  (     0          1          0      )
                  (     0          0          1      )

 cart.    s( 1) = (  1.0000000  0.0000000  0.0000000 )
                  (  0.0000000  1.0000000  0.0000000 )
                  (  0.0000000  0.0000000  1.0000000 )


      isym =  2     180 deg rotation - cart. axis [0,0,1]        

 cryst.   s( 2) = (     0          1         -1      )
                  (     1          0         -1      )
                  (     0          0         -1      )

 cart.    s( 2) = ( -1.0000000  0.0000000  0.0000000 )
                  (  0.0000000 -1.0000000  0.0000000 )
                  (  0.0000000  0.0000000  1.0000000 )


      isym =  3     180 deg rotation - cart. axis [0,1,0]        

 cryst.   s( 3) = (    -1          0          0      )
                  (    -1          0          1      )
                  (    -1          1          0      )

 cart.    s( 3) = ( -1.0000000  0.0000000  0.0000000 )
                  (  0.0000000  1.0000000  0.0000000 )
                  (  0.0000000  0.0000000 -1.0000000 )


      isym =  4     180 deg rotation - cart. axis [1,0,0]        

 cryst.   s( 4) = (     0         -1          1      )
                  (     0         -1          0      )
                  (     1         -1          0      )

 cart.    s( 4) = (  1.0000000  0.0000000  0.0000000 )
                  (  0.0000000 -1.0000000  0.0000000 )
                  (  0.0000000  0.0000000 -1.0000000 )


      isym =  5     180 deg rotation - cart. axis [1,1,0]        

 cryst.   s( 5) = (     0         -1          0      )
                  (    -1          0          0      )
                  (     0          0         -1      )

 cart.    s( 5) = (  0.0000000  1.0000000  0.0000000 )
                  (  1.0000000  0.0000000  0.0000000 )
                  (  0.0000000  0.0000000 -1.0000000 )


      isym =  6     180 deg rotation - cart. axis [1,-1,0]       

 cryst.   s( 6) = (    -1          0          1      )
                  (     0         -1          1      )
                  (     0          0          1      )

 cart.    s( 6) = (  0.0000000 -1.0000000  0.0000000 )
                  ( -1.0000000  0.0000000  0.0000000 )
                  (  0.0000000  0.0000000 -1.0000000 )


      isym =  7      90 deg rotation - cart. axis [0,0,-1]       

 cryst.   s( 7) = (     0          1          0      )
                  (     0          1         -1      )
                  (    -1          1          0      )

 cart.    s( 7) = (  0.0000000  1.0000000  0.0000000 )
                  ( -1.0000000  0.0000000  0.0000000 )
                  (  0.0000000  0.0000000  1.0000000 )


      isym =  8      90 deg rotation - cart. axis [0,0,1]        

 cryst.   s( 8) = (     1          0         -1      )
                  (     1          0          0      )
                  (     1         -1          0      )

 cart.    s( 8) = (  0.0000000 -1.0000000  0.0000000 )
                  (  1.0000000  0.0000000  0.0000000 )
                  (  0.0000000  0.0000000  1.0000000 )


      isym =  9     180 deg rotation - cart. axis [1,0,1]        

 cryst.   s( 9) = (    -1          0          0      )
                  (     0          0         -1      )
                  (     0         -1          0      )

 cart.    s( 9) = (  0.0000000  0.0000000  1.0000000 )
                  (  0.0000000 -1.0000000  0.0000000 )
                  (  1.0000000  0.0000000  0.0000000 )


      isym = 10     180 deg rotation - cart. axis [-1,0,1]       

 cryst.   s(10) = (     1          0          0      )
                  (     1         -1          0      )
                  (     1          0         -1      )

 cart.    s(10) = (  0.0000000  0.0000000 -1.0000000 )
                  (  0.0000000 -1.0000000  0.0000000 )
                  ( -1.0000000  0.0000000  0.0000000 )


      isym = 11      90 deg rotation - cart. axis [0,1,0]        

 cryst.   s(11) = (     0          1         -1      )
                  (    -1          1          0      )
                  (     0          1          0      )

 cart.    s(11) = (  0.0000000  0.0000000  1.0000000 )
                  (  0.0000000  1.0000000  0.0000000 )
                  ( -1.0000000  0.0000000  0.0000000 )


      isym = 12      90 deg rotation - cart. axis [0,-1,0]       

 cryst.   s(12) = (     0         -1          1      )
                  (     0          0          1      )
                  (    -1          0          1      )

 cart.    s(12) = (  0.0000000  0.0000000 -1.0000000 )
                  (  0.0000000  1.0000000  0.0000000 )
                  (  1.0000000  0.0000000  0.0000000 )


      isym = 13     180 deg rotation - cart. axis [0,1,1]        

 cryst.   s(13) = (    -1          1          0      )
                  (     0          1          0      )
                  (     0          1         -1      )

 cart.    s(13) = ( -1.0000000  0.0000000  0.0000000 )
                  (  0.0000000  0.0000000  1.0000000 )
                  (  0.0000000  1.0000000  0.0000000 )


      isym = 14     180 deg rotation - cart. axis [0,1,-1]       

 cryst.   s(14) = (     0          0         -1      )
                  (     0         -1          0      )
                  (    -1          0          0      )

 cart.    s(14) = ( -1.0000000  0.0000000  0.0000000 )
                  (  0.0000000  0.0000000 -1.0000000 )
                  (  0.0000000 -1.0000000  0.0000000 )


      isym = 15      90 deg rotation - cart. axis [-1,0,0]       

 cryst.   s(15) = (     0          0          1      )
                  (    -1          0          1      )
                  (     0         -1          1      )

 cart.    s(15) = (  1.0000000  0.0000000  0.0000000 )
                  (  0.0000000  0.0000000  1.0000000 )
                  (  0.0000000 -1.0000000  0.0000000 )


      isym = 16      90 deg rotation - cart. axis [1,0,0]        

 cryst.   s(16) = (     1         -1          0      )
                  (     1          0         -1      )
                  (     1          0          0      )

 cart.    s(16) = (  1.0000000  0.0000000  0.0000000 )
                  (  0.0000000  0.0000000 -1.0000000 )
                  (  0.0000000  1.0000000  0.0000000 )


      isym = 17     120 deg rotation - cart. axis [-1,-1,-1]     

 cryst.   s(17) = (    -1          0          1      )
                  (    -1          1          0      )
                  (    -1          0          0      )

 cart.    s(17) = (  0.0000000  1.0000000  0.0000000 )
                  (  0.0000000  0.0000000  1.0000000 )
                  (  1.0000000  0.0000000  0.0000000 )


      isym = 18     120 deg rotation - cart. axis [-1,1,1]       

 cryst.   s(18) = (     0          1          0      )
                  (     0          0          1      )
                  (     1          0          0      )

 cart.    s(18) = (  0.0000000 -1.0000000  0.0000000 )
                  (  0.0000000  0.0000000  1.0000000 )
                  ( -1.0000000  0.0000000  0.0000000 )


      isym = 19     120 deg rotation - cart. axis [1,1,-1]       

 cryst.   s(19) = (     1          0         -1      )
                  (     0          0         -1      )
                  (     0          1         -1      )

 cart.    s(19) = (  0.0000000  1.0000000  0.0000000 )
                  (  0.0000000  0.0000000 -1.0000000 )
                  ( -1.0000000  0.0000000  0.0000000 )


      isym = 20     120 deg rotation - cart. axis [1,-1,1]       

 cryst.   s(20) = (     0         -1          0      )
                  (     1         -1          0      )
                  (     0         -1          1      )

 cart.    s(20) = (  0.0000000 -1.0000000  0.0000000 )
                  (  0.0000000  0.0000000 -1.0000000 )
                  (  1.0000000  0.0000000  0.0000000 )


      isym = 21     120 deg rotation - cart. axis [1,1,1]        

 cryst.   s(21) = (     0          0         -1      )
                  (     0          1         -1      )
                  (     1          0         -1      )

 cart.    s(21) = (  0.0000000  0.0000000  1.0000000 )
                  (  1.0000000  0.0000000  0.0000000 )
                  (  0.0000000  1.0000000  0.0000000 )


      isym = 22     120 deg rotation - cart. axis [-1,1,-1]      

 cryst.   s(22) = (    -1          1          0      )
                  (    -1          0          0      )
                  (    -1          0          1      )

 cart.    s(22) = (  0.0000000  0.0000000  1.0000000 )
                  ( -1.0000000  0.0000000  0.0000000 )
                  (  0.0000000 -1.0000000  0.0000000 )


      isym = 23     120 deg rotation - cart. axis [1,-1,-1]      

 cryst.   s(23) = (     0          0          1      )
                  (     1          0          0      )
                  (     0          1          0      )

 cart.    s(23) = (  0.0000000  0.0000000 -1.0000000 )
                  ( -1.0000000  0.0000000  0.0000000 )
                  (  0.0000000  1.0000000  0.0000000 )


      isym = 24     120 deg rotation - cart. axis [-1,-1,1]      

 cryst.   s(24) = (     1         -1          0      )
                  (     0         -1          1      )
                  (     0         -1          0      )

 cart.    s(24) = (  0.0000000  0.0000000 -1.0000000 )
                  (  1.0000000  0.0000000  0.0000000 )
                  (  0.0000000 -1.0000000  0.0000000 )


      isym = 25     inversion                                    

 cryst.   s(25) = (    -1          0          0      )
                  (     0         -1          0      )
                  (     0          0         -1      )

 cart.    s(25) = ( -1.0000000  0.0000000  0.0000000 )
                  (  0.0000000 -1.0000000  0.0000000 )
                  (  0.0000000  0.0000000 -1.0000000 )


      isym = 26     inv. 180 deg rotation - cart. axis [0,0,1]   

 cryst.   s(26) = (     0         -1          1      )
                  (    -1          0          1      )
                  (     0          0          1      )

 cart.    s(26) = (  1.0000000  0.0000000  0.0000000 )
                  (  0.0000000  1.0000000  0.0000000 )
                  (  0.0000000  0.0000000 -1.0000000 )


      isym = 27     inv. 180 deg rotation - cart. axis [0,1,0]   

 cryst.   s(27) = (     1          0          0      )
                  (     1          0         -1      )
                  (     1         -1          0      )

 cart.    s(27) = (  1.0000000  0.0000000  0.0000000 )
                  (  0.0000000 -1.0000000  0.0000000 )
                  (  0.0000000  0.0000000  1.0000000 )


      isym = 28     inv. 180 deg rotation - cart. axis [1,0,0]   

 cryst.   s(28) = (     0          1         -1      )
                  (     0          1          0      )
                  (    -1          1          0      )

 cart.    s(28) = ( -1.0000000  0.0000000  0.0000000 )
                  (  0.0000000  1.0000000  0.0000000 )
                  (  0.0000000  0.0000000  1.0000000 )


      isym = 29     inv. 180 deg rotation - cart. axis [1,1,0]   

 cryst.   s(29) = (     0          1          0      )
                  (     1          0          0      )
                  (     0          0          1      )

 cart.    s(29) = (  0.0000000 -1.0000000  0.0000000 )
                  ( -1.0000000  0.0000000  0.0000000 )
                  (  0.0000000  0.0000000  1.0000000 )


      isym = 30     inv. 180 deg rotation - cart. axis [1,-1,0]  

 cryst.   s(30) = (     1          0         -1      )
                  (     0          1         -1      )
                  (     0          0         -1      )

 cart.    s(30) = (  0.0000000  1.0000000  0.0000000 )
                  (  1.0000000  0.0000000  0.0000000 )
                  (  0.0000000  0.0000000  1.0000000 )


      isym = 31     inv.  90 deg rotation - cart. axis [0,0,-1]  

 cryst.   s(31) = (     0         -1          0      )
                  (     0         -1          1      )
                  (     1         -1          0      )

 cart.    s(31) = (  0.0000000 -1.0000000  0.0000000 )
                  (  1.0000000  0.0000000  0.0000000 )
                  (  0.0000000  0.0000000 -1.0000000 )


      isym = 32     inv.  90 deg rotation - cart. axis [0,0,1]   

 cryst.   s(32) = (    -1          0          1      )
                  (    -1          0          0      )
                  (    -1          1          0      )

 cart.    s(32) = (  0.0000000  1.0000000  0.0000000 )
                  ( -1.0000000  0.0000000  0.0000000 )
                  (  0.0000000  0.0000000 -1.0000000 )


      isym = 33     inv. 180 deg rotation - cart. axis [1,0,1]   

 cryst.   s(33) = (     1          0          0      )
                  (     0          0          1      )
                  (     0          1          0      )

 cart.    s(33) = (  0.0000000  0.0000000 -1.0000000 )
                  (  0.0000000  1.0000000  0.0000000 )
                  ( -1.0000000  0.0000000  0.0000000 )


      isym = 34     inv. 180 deg rotation - cart. axis [-1,0,1]  

 cryst.   s(34) = (    -1          0          0      )
                  (    -1          1          0      )
                  (    -1          0          1      )

 cart.    s(34) = (  0.0000000  0.0000000  1.0000000 )
                  (  0.0000000  1.0000000  0.0000000 )
                  (  1.0000000  0.0000000  0.0000000 )


      isym = 35     inv.  90 deg rotation - cart. axis [0,1,0]   

 cryst.   s(35) = (     0         -1          1      )
                  (     1         -1          0      )
                  (     0         -1          0      )

 cart.    s(35) = (  0.0000000  0.0000000 -1.0000000 )
                  (  0.0000000 -1.0000000  0.0000000 )
                  (  1.0000000  0.0000000  0.0000000 )


      isym = 36     inv.  90 deg rotation - cart. axis [0,-1,0]  

 cryst.   s(36) = (     0          1         -1      )
                  (     0          0         -1      )
                  (     1          0         -1      )

 cart.    s(36) = (  0.0000000  0.0000000  1.0000000 )
                  (  0.0000000 -1.0000000  0.0000000 )
                  ( -1.0000000  0.0000000  0.0000000 )


      isym = 37     inv. 180 deg rotation - cart. axis [0,1,1]   

 cryst.   s(37) = (     1         -1          0      )
                  (     0         -1          0      )
                  (     0         -1          1      )

 cart.    s(37) = (  1.0000000  0.0000000  0.0000000 )
                  (  0.0000000  0.0000000 -1.0000000 )
                  (  0.0000000 -1.0000000  0.0000000 )


      isym = 38     inv. 180 deg rotation - cart. axis [0,1,-1]  

 cryst.   s(38) = (     0          0          1      )
                  (     0          1          0      )
                  (     1          0          0      )

 cart.    s(38) = (  1.0000000  0.0000000  0.0000000 )
                  (  0.0000000  0.0000000  1.0000000 )
                  (  0.0000000  1.0000000  0.0000000 )


      isym = 39     inv.  90 deg rotation - cart. axis [-1,0,0]  

 cryst.   s(39) = (     0          0         -1      )
                  (     1          0         -1      )
                  (     0          1         -1      )

 cart.    s(39) = ( -1.0000000  0.0000000  0.0000000 )
                  (  0.0000000  0.0000000 -1.0000000 )
                  (  0.0000000  1.0000000  0.0000000 )


      isym = 40     inv.  90 deg rotation - cart. axis [1,0,0]   

 cryst.   s(40) = (    -1          1          0      )
                  (    -1          0          1      )
                  (    -1          0          0      )

 cart.    s(40) = ( -1.0000000  0.0000000  0.0000000 )
                  (  0.0000000  0.0000000  1.0000000 )
                  (  0.0000000 -1.0000000  0.0000000 )


      isym = 41     inv. 120 deg rotation - cart. axis [-1,-1,-1]

 cryst.   s(41) = (     1          0         -1      )
                  (     1         -1          0      )
                  (     1          0          0      )

 cart.    s(41) = (  0.0000000 -1.0000000  0.0000000 )
                  (  0.0000000  0.0000000 -1.0000000 )
                  ( -1.0000000  0.0000000  0.0000000 )


      isym = 42     inv. 120 deg rotation - cart. axis [-1,1,1]  

 cryst.   s(42) = (     0         -1          0      )
                  (     0          0         -1      )
                  (    -1          0          0      )

 cart.    s(42) = (  0.0000000  1.0000000  0.0000000 )
                  (  0.0000000  0.0000000 -1.0000000 )
                  (  1.0000000  0.0000000  0.0000000 )


      isym = 43     inv. 120 deg rotation - cart. axis [1,1,-1]  

 cryst.   s(43) = (    -1          0          1      )
                  (     0          0          1      )
                  (     0         -1          1      )

 cart.    s(43) = (  0.0000000 -1.0000000  0.0000000 )
                  (  0.0000000  0.0000000  1.0000000 )
                  (  1.0000000  0.0000000  0.0000000 )


      isym = 44     inv. 120 deg rotation - cart. axis [1,-1,1]  

 cryst.   s(44) = (     0          1          0      )
                  (    -1          1          0      )
                  (     0          1         -1      )

 cart.    s(44) = (  0.0000000  1.0000000  0.0000000 )
                  (  0.0000000  0.0000000  1.0000000 )
                  ( -1.0000000  0.0000000  0.0000000 )


      isym = 45     inv. 120 deg rotation - cart. axis [1,1,1]   

 cryst.   s(45) = (     0          0          1      )
                  (     0         -1          1      )
                  (    -1          0          1      )

 cart.    s(45) = (  0.0000000  0.0000000 -1.0000000 )
                  ( -1.0000000  0.0000000  0.0000000 )
                  (  0.0000000 -1.0000000  0.0000000 )


      isym = 46     inv. 120 deg rotation - cart. axis [-1,1,-1] 

 cryst.   s(46) = (     1         -1          0      )
                  (     1          0          0      )
                  (     1          0         -1      )

 cart.    s(46) = (  0.0000000  0.0000000 -1.0000000 )
                  (  1.0000000  0.0000000  0.0000000 )
                  (  0.0000000  1.0000000  0.0000000 )


      isym = 47     inv. 120 deg rotation - cart. axis [1,-1,-1] 

 cryst.   s(47) = (     0          0         -1      )
                  (    -1          0          0      )
                  (     0         -1          0      )

 cart.    s(47) = (  0.0000000  0.0000000  1.0000000 )
                  (  1.0000000  0.0000000  0.0000000 )
                  (  0.0000000 -1.0000000  0.0000000 )


      isym = 48     inv. 120 deg rotation - cart. axis [-1,-1,1] 

 cryst.   s(48) = (    -1          1          0      )
                  (     0          1         -1      )
                  (     0          1          0      )

 cart.    s(48) = (  0.0000000  0.0000000  1.0000000 )
                  ( -1.0000000  0.0000000  0.0000000 )
                  (  0.0000000  1.0000000  0.0000000 )


     point group O_h (m-3m) 
     there are 10 classes
     the character table:

       E     8C3   3C2   6C4   6C2'  i     8S6   3s_h  6S4   6s_d 
A_1g   1.00  1.00  1.00  1.00  1.00  1.00  1.00  1.00  1.00  1.00
A_2g   1.00  1.00  1.00 -1.00 -1.00  1.00  1.00  1.00 -1.00 -1.00
E_g    2.00 -1.00  2.00  0.00  0.00  2.00 -1.00  2.00  0.00  0.00
T_1g   3.00  0.00 -1.00  1.00 -1.00  3.00  0.00 -1.00  1.00 -1.00
T_2g   3.00  0.00 -1.00 -1.00  1.00  3.00  0.00 -1.00 -1.00  1.00
A_1u   1.00  1.00  1.00  1.00  1.00 -1.00 -1.00 -1.00 -1.00 -1.00
A_2u   1.00  1.00  1.00 -1.00 -1.00 -1.00 -1.00 -1.00  1.00  1.00
E_u    2.00 -1.00  2.00  0.00  0.00 -2.00  1.00 -2.00  0.00  0.00
T_1u   3.00  0.00 -1.00  1.00 -1.00 -3.00  0.00  1.00 -1.00  1.00
T_2u   3.00  0.00 -1.00 -1.00  1.00 -3.00  0.00  1.00  1.00 -1.00

     the symmetry operations in each class and the name of the first element:

     E        1
          identity                                               
     8C3     17   19   20   18   24   21   22   23
          120 deg rotation - cart. axis [-1,-1,-1]               
     3C2      2    4    3
          180 deg rotation - cart. axis [0,0,1]                  
     6C4      7    8   15   16   12   11
           90 deg rotation - cart. axis [0,0,-1]                 
     6C2'     5    6   14   13   10    9
          180 deg rotation - cart. axis [1,1,0]                  
     i       25
          inversion                                              
     8S6     41   43   44   42   48   45   46   47
          inv. 120 deg rotation - cart. axis [-1,-1,-1]          
     3s_h    26   28   27
          inv. 180 deg rotation - cart. axis [0,0,1]             
     6S4     31   32   39   40   36   35
          inv.  90 deg rotation - cart. axis [0,0,-1]            
     6s_d    29   30   38   37   34   33
          inv. 180 deg rotation - cart. axis [1,1,0]             

   Cartesian axes

     site n.     atom                  positions (alat units)
         1           Gd  tau(   1) = (   0.0000000   0.0000000   0.0000000  )
         2           N   tau(   2) = (  -0.5000000   0.5000000   0.5000000  )

   Crystallographic axes

     site n.     atom                  positions (cryst. coord.)
         1           Gd  tau(   1) = (  0.0000000  0.0000000  0.0000000  )
         2           N   tau(   2) = (  0.5000000  0.5000000  0.5000000  )

     number of k points=    20  Marzari-Vanderbilt smearing, width (Ry)=  0.0147
                       cart. coord. in units 2pi/alat
        k(    1) = (   0.0000000   0.0000000   0.0000000), wk =   0.0029155
        k(    2) = (  -0.1428571   0.1428571  -0.1428571), wk =   0.0233236
        k(    3) = (  -0.2857143   0.2857143  -0.2857143), wk =   0.0233236
        k(    4) = (  -0.4285714   0.4285714  -0.4285714), wk =   0.0233236
        k(    5) = (   0.0000000   0.2857143   0.0000000), wk =   0.0174927
        k(    6) = (  -0.1428571   0.4285714  -0.1428571), wk =   0.0699708
        k(    7) = (  -0.2857143   0.5714286  -0.2857143), wk =   0.0699708
        k(    8) = (   0.5714286  -0.2857143   0.5714286), wk =   0.0699708
        k(    9) = (   0.4285714  -0.1428571   0.4285714), wk =   0.0699708
        k(   10) = (   0.2857143  -0.0000000   0.2857143), wk =   0.0349854
        k(   11) = (   0.0000000   0.5714286   0.0000000), wk =   0.0174927
        k(   12) = (  -0.1428571   0.7142857  -0.1428571), wk =   0.0699708
        k(   13) = (   0.7142857  -0.1428571   0.7142857), wk =   0.0699708
        k(   14) = (   0.5714286   0.0000000   0.5714286), wk =   0.0349854
        k(   15) = (   0.0000000   0.8571429   0.0000000), wk =   0.0174927
        k(   16) = (   0.8571429  -0.0000000   0.8571429), wk =   0.0349854
        k(   17) = (  -0.2857143   0.5714286   0.0000000), wk =   0.0699708
        k(   18) = (   0.5714286  -0.2857143   0.8571429), wk =   0.1399417
        k(   19) = (   0.7142857  -0.1428571   1.0000000), wk =   0.0699708
        k(   20) = (   0.5714286   0.0000000   0.8571429), wk =   0.0699708

                       cryst. coord.
        k(    1) = (   0.0000000   0.0000000   0.0000000), wk =   0.0029155
        k(    2) = (   0.0000000   0.0000000   0.1428571), wk =   0.0233236
        k(    3) = (   0.0000000   0.0000000   0.2857143), wk =   0.0233236
        k(    4) = (   0.0000000   0.0000000   0.4285714), wk =   0.0233236
        k(    5) = (   0.0000000   0.1428571   0.1428571), wk =   0.0174927
        k(    6) = (   0.0000000   0.1428571   0.2857143), wk =   0.0699708
        k(    7) = (   0.0000000   0.1428571   0.4285714), wk =   0.0699708
        k(    8) = (   0.0000000   0.1428571  -0.4285714), wk =   0.0699708
        k(    9) = (   0.0000000   0.1428571  -0.2857143), wk =   0.0699708
        k(   10) = (   0.0000000   0.1428571  -0.1428571), wk =   0.0349854
        k(   11) = (   0.0000000   0.2857143   0.2857143), wk =   0.0174927
        k(   12) = (   0.0000000   0.2857143   0.4285714), wk =   0.0699708
        k(   13) = (   0.0000000   0.2857143  -0.4285714), wk =   0.0699708
        k(   14) = (   0.0000000   0.2857143  -0.2857143), wk =   0.0349854
        k(   15) = (   0.0000000   0.4285714   0.4285714), wk =   0.0174927
        k(   16) = (   0.0000000   0.4285714  -0.4285714), wk =   0.0349854
        k(   17) = (   0.1428571   0.2857143   0.4285714), wk =   0.0699708
        k(   18) = (   0.1428571   0.2857143  -0.4285714), wk =   0.1399417
        k(   19) = (   0.1428571   0.4285714  -0.4285714), wk =   0.0699708
        k(   20) = (   0.1428571   0.4285714  -0.2857143), wk =   0.0699708

     Dense  grid:    20275 G-vectors     FFT dimensions: (  40,  40,  40)

     Dynamical RAM for                 wfc:       0.04 MB

     Dynamical RAM for     wfc (w. buffer):       0.43 MB

     Dynamical RAM for           str. fact:       0.04 MB

     Dynamical RAM for           local pot:       0.00 MB

     Dynamical RAM for          nlocal pot:       0.10 MB

     Dynamical RAM for                qrad:       6.89 MB

     Dynamical RAM for          rho,v,vnew:       0.34 MB

     Dynamical RAM for               rhoin:       0.11 MB

     Dynamical RAM for            rho*nmix:       0.62 MB

     Dynamical RAM for           G-vectors:       0.08 MB

     Dynamical RAM for          h,s,v(r/c):       0.05 MB

     Dynamical RAM for          <psi|beta>:       0.01 MB

     Dynamical RAM for                 psi:       0.08 MB

     Dynamical RAM for                hpsi:       0.08 MB

     Dynamical RAM for                spsi:       0.08 MB

     Dynamical RAM for      wfcinit/wfcrot:       0.20 MB

     Dynamical RAM for           addusdens:       2.72 MB

     Dynamical RAM for          addusforce:       2.73 MB

     Dynamical RAM for         addusstress:       2.84 MB

     Estimated static dynamical RAM per process >       8.26 MB

     Estimated max dynamical RAM per process >      11.72 MB

     Estimated total dynamical RAM >     720.21 MB
     Generating pointlists ...
     new r_m :   0.2063 (alat units)  1.9484 (a.u.) for type    1
     new r_m :   0.2063 (alat units)  1.9484 (a.u.) for type    2

     Initial potential from superposition of free atoms

     starting charge      22.9948, renormalised to      23.0000
     Starting wfcs are   36 randomized atomic wfcs
     Checking if some PAW data can be deallocated... 
       PAW data deallocated on   32 nodes for type:  1

     total cpu time spent up to now is       37.5 secs

     Self-consistent Calculation

     iteration #  1     ecut=    80.00 Ry     beta= 0.40
     Davidson diagonalization with overlap

---- Real-time Memory Report at c_bands before calling an iterative solver
           291 MiB given to the printing process from OS
             0 MiB allocation reported by mallinfo(arena+hblkhd)
        336303 MiB available memory on the node where the printing process lives
------------------
     ethr =  1.00E-02,  avg # of iterations =  1.5

     total cpu time spent up to now is       49.4 secs

     WARNING: integrated charge=    23.00235235, expected=    23.00000000

     total energy              =    -704.60626038 Ry
     estimated scf accuracy    <       1.13991451 Ry

     total magnetization       =     7.01 Bohr mag/cell
     absolute magnetization    =     7.01 Bohr mag/cell

     iteration #  2     ecut=    80.00 Ry     beta= 0.40
     Davidson diagonalization with overlap

---- Real-time Memory Report at c_bands before calling an iterative solver
           301 MiB given to the printing process from OS
             0 MiB allocation reported by mallinfo(arena+hblkhd)
        336240 MiB available memory on the node where the printing process lives
------------------
     ethr =  4.96E-03,  avg # of iterations =  2.3

     total cpu time spent up to now is       64.4 secs

     WARNING: integrated charge=    23.00200107, expected=    23.00000000

     total energy              =    -704.17135811 Ry
     estimated scf accuracy    <       2.54930768 Ry

     total magnetization       =     6.14 Bohr mag/cell
     absolute magnetization    =     6.14 Bohr mag/cell

     iteration #  3     ecut=    80.00 Ry     beta= 0.40
     Davidson diagonalization with overlap

---- Real-time Memory Report at c_bands before calling an iterative solver
           301 MiB given to the printing process from OS
             0 MiB allocation reported by mallinfo(arena+hblkhd)
        356582 MiB available memory on the node where the printing process lives
------------------
     ethr =  4.96E-03,  avg # of iterations =  2.0
     Minimization algorithm failed to find Fermi energy: reverting to bisection
     Possible cause: smearing is larger than the electronic band-gap.

     total cpu time spent up to now is       83.7 secs

     WARNING: integrated charge=    23.00129489, expected=    23.00000000

     total energy              =    -704.92533168 Ry
     estimated scf accuracy    <       0.40579985 Ry

     total magnetization       =     6.96 Bohr mag/cell
     absolute magnetization    =     7.10 Bohr mag/cell

     iteration #  4     ecut=    80.00 Ry     beta= 0.40
     Davidson diagonalization with overlap

---- Real-time Memory Report at c_bands before calling an iterative solver
           301 MiB given to the printing process from OS
             0 MiB allocation reported by mallinfo(arena+hblkhd)
        354301 MiB available memory on the node where the printing process lives
------------------
     ethr =  1.76E-03,  avg # of iterations =  1.0

     total cpu time spent up to now is      105.2 secs

     WARNING: integrated charge=    22.99938783, expected=    23.00000000

     total energy              =    -704.94781467 Ry
     estimated scf accuracy    <       0.17845608 Ry

     total magnetization       =     7.00 Bohr mag/cell
     absolute magnetization    =     7.13 Bohr mag/cell

     iteration #  5     ecut=    80.00 Ry     beta= 0.40
     Davidson diagonalization with overlap

---- Real-time Memory Report at c_bands before calling an iterative solver
           302 MiB given to the printing process from OS
             0 MiB allocation reported by mallinfo(arena+hblkhd)
        354253 MiB available memory on the node where the printing process lives
------------------
     ethr =  7.76E-04,  avg # of iterations =  1.5

     total cpu time spent up to now is      121.3 secs

     WARNING: integrated charge=    22.99981635, expected=    23.00000000

     total energy              =    -704.97665394 Ry
     estimated scf accuracy    <       0.00366167 Ry

     total magnetization       =     7.00 Bohr mag/cell
     absolute magnetization    =     7.20 Bohr mag/cell

     iteration #  6     ecut=    80.00 Ry     beta= 0.40
     Davidson diagonalization with overlap

---- Real-time Memory Report at c_bands before calling an iterative solver
           302 MiB given to the printing process from OS
             0 MiB allocation reported by mallinfo(arena+hblkhd)
        354226 MiB available memory on the node where the printing process lives
------------------
     ethr =  1.59E-05,  avg # of iterations =  4.9
     Minimization algorithm failed to find Fermi energy: reverting to bisection
     Possible cause: smearing is larger than the electronic band-gap.

     total cpu time spent up to now is      138.4 secs

     WARNING: integrated charge=    22.99990298, expected=    23.00000000

     total energy              =    -704.97654772 Ry
     estimated scf accuracy    <       0.00093640 Ry

     total magnetization       =     7.00 Bohr mag/cell
     absolute magnetization    =     7.20 Bohr mag/cell

     iteration #  7     ecut=    80.00 Ry     beta= 0.40
     Davidson diagonalization with overlap

---- Real-time Memory Report at c_bands before calling an iterative solver
           302 MiB given to the printing process from OS
             0 MiB allocation reported by mallinfo(arena+hblkhd)
        354233 MiB available memory on the node where the printing process lives
------------------
     ethr =  4.07E-06,  avg # of iterations =  4.2

     total cpu time spent up to now is      154.6 secs

     WARNING: integrated charge=    22.99999659, expected=    23.00000000

     total energy              =    -704.97802187 Ry
     estimated scf accuracy    <       0.00459020 Ry

     total magnetization       =     7.00 Bohr mag/cell
     absolute magnetization    =     7.21 Bohr mag/cell

     iteration #  8     ecut=    80.00 Ry     beta= 0.40
     Davidson diagonalization with overlap

---- Real-time Memory Report at c_bands before calling an iterative solver
           302 MiB given to the printing process from OS
             0 MiB allocation reported by mallinfo(arena+hblkhd)
        354202 MiB available memory on the node where the printing process lives
------------------
     ethr =  4.07E-06,  avg # of iterations =  2.6
     Minimization algorithm failed to find Fermi energy: reverting to bisection
     Possible cause: smearing is larger than the electronic band-gap.

     total cpu time spent up to now is      169.6 secs

     WARNING: integrated charge=    22.99999228, expected=    23.00000000

     total energy              =    -704.97868479 Ry
     estimated scf accuracy    <       0.00003707 Ry

     total magnetization       =     7.00 Bohr mag/cell
     absolute magnetization    =     7.21 Bohr mag/cell

     iteration #  9     ecut=    80.00 Ry     beta= 0.40
     Davidson diagonalization with overlap

---- Real-time Memory Report at c_bands before calling an iterative solver
           303 MiB given to the printing process from OS
             0 MiB allocation reported by mallinfo(arena+hblkhd)
        354182 MiB available memory on the node where the printing process lives
------------------
     ethr =  1.61E-07,  avg # of iterations =  3.9
     Minimization algorithm failed to find Fermi energy: reverting to bisection
     Possible cause: smearing is larger than the electronic band-gap.

     total cpu time spent up to now is      187.8 secs

     total energy              =    -704.97868034 Ry
     estimated scf accuracy    <       0.00001474 Ry

     total magnetization       =     7.00 Bohr mag/cell
     absolute magnetization    =     7.21 Bohr mag/cell

     iteration # 10     ecut=    80.00 Ry     beta= 0.40
     Davidson diagonalization with overlap

---- Real-time Memory Report at c_bands before calling an iterative solver
           303 MiB given to the printing process from OS
             0 MiB allocation reported by mallinfo(arena+hblkhd)
        354174 MiB available memory on the node where the printing process lives
------------------
     ethr =  6.41E-08,  avg # of iterations =  2.8
     Minimization algorithm failed to find Fermi energy: reverting to bisection
     Possible cause: smearing is larger than the electronic band-gap.

     total cpu time spent up to now is      202.9 secs

     total energy              =    -704.97869189 Ry
     estimated scf accuracy    <       0.00000827 Ry

     total magnetization       =     7.00 Bohr mag/cell
     absolute magnetization    =     7.21 Bohr mag/cell

     iteration # 11     ecut=    80.00 Ry     beta= 0.40
     Davidson diagonalization with overlap

---- Real-time Memory Report at c_bands before calling an iterative solver
           303 MiB given to the printing process from OS
             0 MiB allocation reported by mallinfo(arena+hblkhd)
        353757 MiB available memory on the node where the printing process lives
------------------
     ethr =  3.60E-08,  avg # of iterations =  1.5
     Minimization algorithm failed to find Fermi energy: reverting to bisection
     Possible cause: smearing is larger than the electronic band-gap.

     total cpu time spent up to now is      219.0 secs

     total energy              =    -704.97869158 Ry
     estimated scf accuracy    <       0.00000227 Ry

     total magnetization       =     7.00 Bohr mag/cell
     absolute magnetization    =     7.21 Bohr mag/cell

     iteration # 12     ecut=    80.00 Ry     beta= 0.40
     Davidson diagonalization with overlap

---- Real-time Memory Report at c_bands before calling an iterative solver
           303 MiB given to the printing process from OS
             0 MiB allocation reported by mallinfo(arena+hblkhd)
        353231 MiB available memory on the node where the printing process lives
------------------
     ethr =  9.88E-09,  avg # of iterations =  2.4
     Minimization algorithm failed to find Fermi energy: reverting to bisection
     Possible cause: smearing is larger than the electronic band-gap.

     total cpu time spent up to now is      239.4 secs

     total energy              =    -704.97869231 Ry
     estimated scf accuracy    <       0.00000064 Ry

     total magnetization       =     7.00 Bohr mag/cell
     absolute magnetization    =     7.21 Bohr mag/cell

     iteration # 13     ecut=    80.00 Ry     beta= 0.40
     Davidson diagonalization with overlap

---- Real-time Memory Report at c_bands before calling an iterative solver
           303 MiB given to the printing process from OS
             0 MiB allocation reported by mallinfo(arena+hblkhd)
        353215 MiB available memory on the node where the printing process lives
------------------
     ethr =  2.80E-09,  avg # of iterations =  1.9
     Minimization algorithm failed to find Fermi energy: reverting to bisection
     Possible cause: smearing is larger than the electronic band-gap.

     total cpu time spent up to now is      258.7 secs

     total energy              =    -704.97869241 Ry
     estimated scf accuracy    <       0.00000019 Ry

     total magnetization       =     7.00 Bohr mag/cell
     absolute magnetization    =     7.21 Bohr mag/cell

     iteration # 14     ecut=    80.00 Ry     beta= 0.40
     Davidson diagonalization with overlap

---- Real-time Memory Report at c_bands before calling an iterative solver
           303 MiB given to the printing process from OS
             0 MiB allocation reported by mallinfo(arena+hblkhd)
        353190 MiB available memory on the node where the printing process lives
------------------
     ethr =  8.47E-10,  avg # of iterations =  1.9
     Minimization algorithm failed to find Fermi energy: reverting to bisection
     Possible cause: smearing is larger than the electronic band-gap.

     total cpu time spent up to now is      271.4 secs

     total energy              =    -704.97869227 Ry
     estimated scf accuracy    <       0.00000039 Ry

     total magnetization       =     7.00 Bohr mag/cell
     absolute magnetization    =     7.21 Bohr mag/cell

     iteration # 15     ecut=    80.00 Ry     beta= 0.40
     Davidson diagonalization with overlap

---- Real-time Memory Report at c_bands before calling an iterative solver
           303 MiB given to the printing process from OS
             0 MiB allocation reported by mallinfo(arena+hblkhd)
        353187 MiB available memory on the node where the printing process lives
------------------
     ethr =  8.47E-10,  avg # of iterations =  3.0
     Minimization algorithm failed to find Fermi energy: reverting to bisection
     Possible cause: smearing is larger than the electronic band-gap.

     total cpu time spent up to now is      287.7 secs

     total energy              =    -704.97869235 Ry
     estimated scf accuracy    <          8.8E-09 Ry

     total magnetization       =     7.00 Bohr mag/cell
     absolute magnetization    =     7.21 Bohr mag/cell

     iteration # 16     ecut=    80.00 Ry     beta= 0.40
     Davidson diagonalization with overlap

---- Real-time Memory Report at c_bands before calling an iterative solver
           303 MiB given to the printing process from OS
             0 MiB allocation reported by mallinfo(arena+hblkhd)
        353192 MiB available memory on the node where the printing process lives
------------------
     ethr =  3.81E-11,  avg # of iterations =  4.2
     Minimization algorithm failed to find Fermi energy: reverting to bisection
     Possible cause: smearing is larger than the electronic band-gap.

     total cpu time spent up to now is      300.6 secs

     total energy              =    -704.97869235 Ry
     estimated scf accuracy    <       0.00000001 Ry

     total magnetization       =     7.00 Bohr mag/cell
     absolute magnetization    =     7.21 Bohr mag/cell

     iteration # 17     ecut=    80.00 Ry     beta= 0.40
     Davidson diagonalization with overlap

---- Real-time Memory Report at c_bands before calling an iterative solver
           303 MiB given to the printing process from OS
             0 MiB allocation reported by mallinfo(arena+hblkhd)
        353184 MiB available memory on the node where the printing process lives
------------------
     ethr =  3.81E-11,  avg # of iterations =  3.9
     Minimization algorithm failed to find Fermi energy: reverting to bisection
     Possible cause: smearing is larger than the electronic band-gap.

     total cpu time spent up to now is      315.6 secs

     total energy              =    -704.97869235 Ry
     estimated scf accuracy    <       0.00000003 Ry

     total magnetization       =     7.00 Bohr mag/cell
     absolute magnetization    =     7.21 Bohr mag/cell

     iteration # 18     ecut=    80.00 Ry     beta= 0.40
     Davidson diagonalization with overlap

---- Real-time Memory Report at c_bands before calling an iterative solver
           303 MiB given to the printing process from OS
             0 MiB allocation reported by mallinfo(arena+hblkhd)
        353187 MiB available memory on the node where the printing process lives
------------------
     ethr =  3.81E-11,  avg # of iterations =  3.8
     Minimization algorithm failed to find Fermi energy: reverting to bisection
     Possible cause: smearing is larger than the electronic band-gap.
 
     Magnetic moment per site  (integrated on atomic sphere of radius R)
     atom   1 (R=0.206)  charge= 14.4769  magn=  6.8683
     atom   2 (R=0.206)  charge=  5.3266  magn= -0.1025

     total cpu time spent up to now is      334.9 secs

     End of self-consistent calculation

 ------ SPIN UP ------------


          k = 0.0000 0.0000 0.0000 (  2637 PWs)   bands (ev):

   -29.4154  -6.4277  -6.4277  -6.4277   1.3923  10.9482  10.9482  10.9482
    11.1279  11.3653  11.3653  11.3653  14.7052  14.7052  14.7052  16.8848

     occupation numbers 
     1.0000   1.0000   1.0000   1.0000   1.0000   1.0000   1.0000   1.0000
     1.0000   1.0000   1.0000   1.0000   0.0011   0.0011   0.0011   0.0000

          k =-0.1429 0.1429-0.1429 (  2568 PWs)   bands (ev):

   -29.3990  -6.6655  -6.4449  -6.4449   1.7260  10.8811  10.9748  10.9748
    11.1443  11.3345  11.3345  11.3664  13.4986  13.9463  13.9463  17.1452

     occupation numbers 
     1.0000   1.0000   1.0000   1.0000   1.0000   1.0000   1.0000   1.0000
     1.0000   1.0000   1.0000   1.0000   1.0000   1.0383   1.0383   0.0000

          k =-0.2857 0.2857-0.2857 (  2551 PWs)   bands (ev):

   -29.3617  -7.1475  -6.4832  -6.4832   2.4429  10.6298  11.0692  11.0692
    11.1858  11.2773  11.2773  11.3687  12.0053  12.7973  12.7973  17.8661

     occupation numbers 
     1.0000   1.0000   1.0000   1.0000   1.0000   1.0000   1.0000   1.0000
     1.0000   1.0000   1.0000   1.0000   1.0000   1.0000   1.0000   0.0000

          k =-0.4286 0.4286-0.4286 (  2533 PWs)   bands (ev):

   -29.3315  -7.4946  -6.5134  -6.5134   3.0081  10.1464  11.2146  11.2146
    11.2175  11.2849  11.2849  11.3706  11.4176  11.9938  11.9938  19.0969

     occupation numbers 
     1.0000   1.0000   1.0000   1.0000   1.0000   1.0000   1.0000   1.0000
     1.0000   1.0000   1.0000   1.0000   1.0000   1.0000   1.0000   0.0000

          k = 0.0000 0.2857 0.0000 (  2585 PWs)   bands (ev):

   -29.3935  -6.6532  -6.4917  -6.4917   1.7798  10.8603  10.9862  10.9862
    11.1503  11.3377  11.3380  11.3380  12.9335  14.2845  14.2845  16.1245

     occupation numbers 
     1.0000   1.0000   1.0000   1.0000   1.0000   1.0000   1.0000   1.0000
     1.0000   1.0000   1.0000   1.0000   1.0000   0.6526   0.6526   0.0000

          k =-0.1429 0.4286-0.1429 (  2559 PWs)   bands (ev):

   -29.3632  -6.9999  -6.5482  -6.5316   2.2208  10.7760  11.0436  11.0504
    11.1865  11.2782  11.2999  11.3414  12.0656  13.2956  13.5950  16.2919

     occupation numbers 
     1.0000   1.0000   1.0000   1.0000   1.0000   1.0000   1.0000   1.0000
     1.0000   1.0000   1.0000   1.0000   1.0000   1.0000   1.0000   0.0000

          k =-0.2857 0.5714-0.2857 (  2543 PWs)   bands (ev):

   -29.3307  -7.3511  -6.5997  -6.5721   2.6902  10.6065  11.1540  11.2044
    11.2274  11.2328  11.2942  11.3430  11.4972  12.2984  12.6636  17.4024

     occupation numbers 
     1.0000   1.0000   1.0000   1.0000   1.0000   1.0000   1.0000   1.0000
     1.0000   1.0000   1.0000   1.0000   1.0000   1.0000   1.0000   0.0000

          k = 0.5714-0.2857 0.5714 (  2545 PWs)   bands (ev):

   -29.3206  -7.4527  -6.6599  -6.5461   2.8756  10.4348  11.2075  11.2301
    11.2608  11.2833  11.2896  11.3402  11.3653  12.1141  12.2034  19.0125

     occupation numbers 
     1.0000   1.0000   1.0000   1.0000   1.0000   1.0000   1.0000   1.0000
     1.0000   1.0000   1.0000   1.0000   1.0000   1.0000   1.0000   0.0000

          k = 0.4286-0.1429 0.4286 (  2546 PWs)   bands (ev):

   -29.3407  -7.2543  -6.6561  -6.4892   2.6421  10.5551  11.1335  11.1346
    11.2169  11.2435  11.2770  11.3521  11.6752  12.3127  12.8678  18.0427

     occupation numbers 
     1.0000   1.0000   1.0000   1.0000   1.0000   1.0000   1.0000   1.0000
     1.0000   1.0000   1.0000   1.0000   1.0000   1.0000   1.0000   0.0000

          k = 0.2857-0.0000 0.2857 (  2567 PWs)   bands (ev):

   -29.3756  -6.9045  -6.5636  -6.4439   2.1277  10.7684  11.0187  11.0292
    11.1708  11.2861  11.3162  11.3544  12.4971  13.0520  13.6791  17.4061

     occupation numbers 
     1.0000   1.0000   1.0000   1.0000   1.0000   1.0000   1.0000   1.0000
     1.0000   1.0000   1.0000   1.0000   1.0000   1.0000   1.0002   0.0000

          k = 0.0000 0.5714 0.0000 (  2550 PWs)   bands (ev):

   -29.3442  -7.0405  -6.6335  -6.6335   2.1080  11.0282  11.0531  11.0531
    11.2158  11.2795  11.2958  11.2958  11.8877  14.0749  14.0749  14.8608

     occupation numbers 
     1.0000   1.0000   1.0000   1.0000   1.0000   1.0000   1.0000   1.0000
     1.0000   1.0000   1.0000   1.0000   1.0000   1.0832   1.0832   0.0000

          k =-0.1429 0.7143-0.1429 (  2545 PWs)   bands (ev):

   -29.3187  -7.2112  -6.7410  -6.6754   2.1723  11.0277  11.0891  11.2437
    11.2583  11.2797  11.2955  11.3048  11.9414  13.1272  13.6420  15.4657

     occupation numbers 
     1.0000   1.0000   1.0000   1.0000   1.0000   1.0000   1.0000   1.0000
     1.0000   1.0000   1.0000   1.0000   1.0000   1.0000   1.0001   0.0000

          k = 0.7143-0.1429 0.7143 (  2553 PWs)   bands (ev):

   -29.3061  -7.2475  -6.9206  -6.6439   2.3988  10.9595  11.1402  11.2372
    11.2646  11.3017  11.3204  11.3283  11.8217  12.6065  12.8672  16.9234

     occupation numbers 
     1.0000   1.0000   1.0000   1.0000   1.0000   1.0000   1.0000   1.0000
     1.0000   1.0000   1.0000   1.0000   1.0000   1.0000   1.0000   0.0000

          k = 0.5714 0.0000 0.5714 (  2554 PWs)   bands (ev):

   -29.3159  -7.2362  -6.9171  -6.5615   2.6253  10.7494  11.1740  11.2084
    11.2517  11.2716  11.2849  11.3433  11.5236  12.3336  12.7839  18.8229

     occupation numbers 
     1.0000   1.0000   1.0000   1.0000   1.0000   1.0000   1.0000   1.0000
     1.0000   1.0000   1.0000   1.0000   1.0000   1.0000   1.0000   0.0000

          k = 0.0000 0.8571 0.0000 (  2526 PWs)   bands (ev):

   -29.3045  -7.2620  -6.7453  -6.7453   1.8417  11.0709  11.0709  11.2363
    11.2924  11.2965  11.2965  11.2968  12.6372  14.0549  14.2044  14.2044

     occupation numbers 
     1.0000   1.0000   1.0000   1.0000   1.0000   1.0000   1.0000   1.0000
     1.0000   1.0000   1.0000   1.0000   1.0000   1.0820   0.9188   0.9188

          k = 0.8571-0.0000 0.8571 (  2542 PWs)   bands (ev):

   -29.2989  -7.2395  -6.8699  -6.7316   1.9437  11.0498  11.0871  11.2314
    11.2871  11.3045  11.3051  11.3076  12.8704  13.0253  13.7749  15.2300

     occupation numbers 
     1.0000   1.0000   1.0000   1.0000   1.0000   1.0000   1.0000   1.0000
     1.0000   1.0000   1.0000   1.0000   1.0000   1.0000   1.0024   0.0000

          k =-0.2857 0.5714 0.0000 (  2555 PWs)   bands (ev):

   -29.3354  -7.1656  -6.7224  -6.5626   2.4117  10.8275  11.1070  11.1528
    11.2291  11.2475  11.2827  11.3305  11.7166  12.8391  13.2149  16.5648

     occupation numbers 
     1.0000   1.0000   1.0000   1.0000   1.0000   1.0000   1.0000   1.0000
     1.0000   1.0000   1.0000   1.0000   1.0000   1.0000   1.0000   0.0000

          k = 0.5714-0.2857 0.8571 (  2535 PWs)   bands (ev):

   -29.3129  -7.2874  -6.8279  -6.6271   2.5477  10.8373  11.1835  11.2178
    11.2582  11.2910  11.3130  11.3395  11.5816  12.4361  12.7329  17.6339

     occupation numbers 
     1.0000   1.0000   1.0000   1.0000   1.0000   1.0000   1.0000   1.0000
     1.0000   1.0000   1.0000   1.0000   1.0000   1.0000   1.0000   0.0000

          k = 0.7143-0.1429 1.0000 (  2534 PWs)   bands (ev):

   -29.3032  -7.2066  -6.8470  -6.7647   2.1323  10.9965  11.1241  11.2303
    11.2850  11.2959  11.2995  11.3249  12.4517  13.0504  13.0727  16.0687

     occupation numbers 
     1.0000   1.0000   1.0000   1.0000   1.0000   1.0000   1.0000   1.0000
     1.0000   1.0000   1.0000   1.0000   1.0000   1.0000   1.0000   0.0000

          k = 0.5714 0.0000 0.8571 (  2542 PWs)   bands (ev):

   -29.3006  -7.0685  -7.0679  -6.7415   2.3083  10.9314  11.1729  11.2145
    11.2749  11.2967  11.3055  11.3522  12.1531  12.7737  12.8299  17.4085

     occupation numbers 
     1.0000   1.0000   1.0000   1.0000   1.0000   1.0000   1.0000   1.0000
     1.0000   1.0000   1.0000   1.0000   1.0000   1.0000   1.0000   0.0000

 ------ SPIN DOWN ----------


          k = 0.0000 0.0000 0.0000 (  2637 PWs)   bands (ev):

   -26.3470  -4.1331  -4.1331  -4.1331   1.3871  13.5582  13.5582  13.5582
    16.1365  16.6755  16.6755  16.6755  17.2972  17.2972  17.2972  17.7554

     occupation numbers 
     1.0000   1.0000   1.0000   1.0000   1.0000   1.0000   1.0000   1.0000
     0.0000   0.0000   0.0000   0.0000   0.0000   0.0000   0.0000   0.0000

          k =-0.1429 0.1429-0.1429 (  2568 PWs)   bands (ev):

   -26.3256  -4.4721  -4.1526  -4.1526   1.7897  12.7777  13.1942  13.1942
    16.0687  16.5592  16.5592  16.6775  16.8509  16.9646  16.9647  18.2114

     occupation numbers 
     1.0000   1.0000   1.0000   1.0000   1.0000   1.0000   1.0000   1.0000
     0.0000   0.0000   0.0000   0.0000   0.0000   0.0000   0.0000   0.0000

          k =-0.2857 0.2857-0.2857 (  2551 PWs)   bands (ev):

   -26.2772  -5.1147  -4.1956  -4.1956   2.5906  11.4062  12.4962  12.4962
    16.0934  16.4310  16.4310  16.6688  16.6819  16.7055  16.7055  18.9231

     occupation numbers 
     1.0000   1.0000   1.0000   1.0000   1.0000   1.0000   1.0000   1.0000
     0.0000   0.0000   0.0000   0.0000   0.0000   0.0000   0.0000   0.0000

          k =-0.4286 0.4286-0.4286 (  2533 PWs)   bands (ev):

   -26.2379  -5.5539  -4.2295  -4.2295   3.1814  10.4777  12.0242  12.0242
    16.2393  16.3746  16.3746  16.6149  16.6149  16.6271  16.6855  19.8066

     occupation numbers 
     1.0000   1.0000   1.0000   1.0000   1.0000   1.0000   1.0000   1.0000
     0.0000   0.0000   0.0000   0.0000   0.0000   0.0000   0.0000   0.0000

          k = 0.0000 0.2857 0.0000 (  2585 PWs)   bands (ev):

   -26.3186  -4.4583  -4.2127  -4.2127   1.8488  12.2875  13.4507  13.4507
    15.9782  16.5599  16.5599  16.6127  16.8331  17.0715  17.0715  17.2214

     occupation numbers 
     1.0000   1.0000   1.0000   1.0000   1.0000   1.0000   1.0000   1.0000
     0.0000   0.0000   0.0000   0.0000   0.0000   0.0000   0.0000   0.0000

          k =-0.1429 0.4286-0.1429 (  2559 PWs)   bands (ev):

   -26.2793  -4.9165  -4.2809  -4.2590   2.3300  11.5916  12.9025  13.0916
    15.8997  16.4619  16.4754  16.6046  16.6617  16.7220  16.8868  17.6023

     occupation numbers 
     1.0000   1.0000   1.0000   1.0000   1.0000   1.0000   1.0000   1.0000
     0.0000   0.0000   0.0000   0.0000   0.0000   0.0000   0.0000   0.0000

          k =-0.2857 0.5714-0.2857 (  2543 PWs)   bands (ev):

   -26.2369  -5.3640  -4.3407  -4.3062   2.8147  11.0678  12.2747  12.4887
    16.1232  16.3975  16.4034  16.5815  16.6043  16.6299  16.7257  18.4782

     occupation numbers 
     1.0000   1.0000   1.0000   1.0000   1.0000   1.0000   1.0000   1.0000
     0.0000   0.0000   0.0000   0.0000   0.0000   0.0000   0.0000   0.0000

          k = 0.5714-0.2857 0.5714 (  2545 PWs)   bands (ev):

   -26.2238  -5.4930  -4.4172  -4.2704   3.0091  10.7793  12.1068  12.3097
    16.2766  16.3515  16.3801  16.5778  16.6004  16.6177  16.6758  19.8060

     occupation numbers 
     1.0000   1.0000   1.0000   1.0000   1.0000   1.0000   1.0000   1.0000
     0.0000   0.0000   0.0000   0.0000   0.0000   0.0000   0.0000   0.0000

          k = 0.4286-0.1429 0.4286 (  2546 PWs)   bands (ev):

   -26.2499  -5.2479  -4.4162  -4.1997   2.7852  11.0558  12.1484  12.7810
    16.1397  16.3974  16.4102  16.6257  16.6383  16.6528  16.6774  19.0150

     occupation numbers 
     1.0000   1.0000   1.0000   1.0000   1.0000   1.0000   1.0000   1.0000
     0.0000   0.0000   0.0000   0.0000   0.0000   0.0000   0.0000   0.0000

          k = 0.2857-0.0000 0.2857 (  2567 PWs)   bands (ev):

   -26.2953  -4.7982  -4.3025  -4.1468   2.2442  11.8758  12.5952  13.2489
    16.0245  16.4701  16.4885  16.6476  16.7615  16.7666  16.7857  18.4627

     occupation numbers 
     1.0000   1.0000   1.0000   1.0000   1.0000   1.0000   1.0000   1.0000
     0.0000   0.0000   0.0000   0.0000   0.0000   0.0000   0.0000   0.0000

          k = 0.0000 0.5714 0.0000 (  2550 PWs)   bands (ev):

   -26.2546  -4.9447  -4.3884  -4.3884   2.1511  11.7628  13.4308  13.4308
    15.3468  16.4991  16.5011  16.5011  16.5675  16.7039  17.0425  17.0425

     occupation numbers 
     1.0000   1.0000   1.0000   1.0000   1.0000   1.0000   1.0000   1.0000
     0.0000   0.0000   0.0000   0.0000   0.0000   0.0000   0.0000   0.0000

          k =-0.1429 0.7143-0.1429 (  2545 PWs)   bands (ev):

   -26.2216  -5.1472  -4.5248  -4.4384   2.1809  12.1285  12.9721  13.1924
    15.4968  16.4302  16.4719  16.5209  16.5357  16.6138  16.9085  17.2424

     occupation numbers 
     1.0000   1.0000   1.0000   1.0000   1.0000   1.0000   1.0000   1.0000
     0.0000   0.0000   0.0000   0.0000   0.0000   0.0000   0.0000   0.0000

          k = 0.7143-0.1429 0.7143 (  2553 PWs)   bands (ev):

   -26.2051  -5.2017  -4.7557  -4.3956   2.4357  11.8109  12.6563  12.8385
    16.0802  16.4004  16.4044  16.5290  16.5611  16.5920  16.7420  18.0384

     occupation numbers 
     1.0000   1.0000   1.0000   1.0000   1.0000   1.0000   1.0000   1.0000
     0.0000   0.0000   0.0000   0.0000   0.0000   0.0000   0.0000   0.0000

          k = 0.5714 0.0000 0.5714 (  2554 PWs)   bands (ev):

   -26.2178  -5.2174  -4.7420  -4.2900   2.7219  11.2113  12.2278  12.9540
    16.2755  16.3278  16.3986  16.5665  16.5924  16.6145  16.6642  19.6592

     occupation numbers 
     1.0000   1.0000   1.0000   1.0000   1.0000   1.0000   1.0000   1.0000
     0.0000   0.0000   0.0000   0.0000   0.0000   0.0000   0.0000   0.0000

          k = 0.0000 0.8571 0.0000 (  2526 PWs)   bands (ev):

   -26.2033  -5.1747  -4.5261  -4.5261   1.7569  12.9499  13.5604  13.5604
    14.7641  16.4270  16.4794  16.5206  16.5206  16.5778  17.0612  17.0612

     occupation numbers 
     1.0000   1.0000   1.0000   1.0000   1.0000   1.0000   1.0000   1.0000
     0.0002   0.0000   0.0000   0.0000   0.0000   0.0000   0.0000   0.0000

          k = 0.8571-0.0000 0.8571 (  2542 PWs)   bands (ev):

   -26.1959  -5.1383  -4.7035  -4.5076   1.8800  12.9498  13.1881  13.3000
    15.2911  16.4123  16.4622  16.5240  16.5342  16.5679  16.9253  17.1853

     occupation numbers 
     1.0000   1.0000   1.0000   1.0000   1.0000   1.0000   1.0000   1.0000
     0.0000   0.0000   0.0000   0.0000   0.0000   0.0000   0.0000   0.0000

          k =-0.2857 0.5714 0.0000 (  2555 PWs)   bands (ev):

   -26.2431  -5.1210  -4.4998  -4.2955   2.5021  11.4774  12.5113  13.1089
    15.9179  16.4168  16.4530  16.5624  16.5897  16.6536  16.7865  17.8195

     occupation numbers 
     1.0000   1.0000   1.0000   1.0000   1.0000   1.0000   1.0000   1.0000
     0.0000   0.0000   0.0000   0.0000   0.0000   0.0000   0.0000   0.0000

          k = 0.5714-0.2857 0.8571 (  2535 PWs)   bands (ev):

   -26.2139  -5.2683  -4.6293  -4.3798   2.6227  11.4342  12.4209  12.8005
    16.1800  16.3500  16.4299  16.5248  16.6025  16.6067  16.6933  18.6448

     occupation numbers 
     1.0000   1.0000   1.0000   1.0000   1.0000   1.0000   1.0000   1.0000
     0.0000   0.0000   0.0000   0.0000   0.0000   0.0000   0.0000   0.0000

          k = 0.7143-0.1429 1.0000 (  2534 PWs)   bands (ev):

   -26.2015  -5.1178  -4.6536  -4.5719   2.1177  12.4283  12.9408  13.1521
    15.7121  16.3914  16.4764  16.4978  16.5578  16.5799  16.8101  17.5144

     occupation numbers 
     1.0000   1.0000   1.0000   1.0000   1.0000   1.0000   1.0000   1.0000
     0.0000   0.0000   0.0000   0.0000   0.0000   0.0000   0.0000   0.0000

          k = 0.5714 0.0000 0.8571 (  2542 PWs)   bands (ev):

   -26.1980  -4.9693  -4.9285  -4.5367   2.3315  11.9108  12.8652  13.0441
    16.1633  16.3098  16.4605  16.5021  16.5755  16.5972  16.7024  18.4233

     occupation numbers 
     1.0000   1.0000   1.0000   1.0000   1.0000   1.0000   1.0000   1.0000
     0.0000   0.0000   0.0000   0.0000   0.0000   0.0000   0.0000   0.0000

     the Fermi energy is    14.3530 ev

!    total energy              =    -704.97869236 Ry
     estimated scf accuracy    <          5.8E-10 Ry
     smearing contrib. (-TS)   =       0.00014011 Ry
     internal energy E=F+TS    =    -704.97883247 Ry

     The total energy is F=E-TS. E is the sum of the following terms:
     one-electron contribution =     -76.58189380 Ry
     hartree contribution      =      56.86785294 Ry
     xc contribution           =     -29.73201016 Ry
     ewald contribution        =    -190.14693032 Ry
     one-center paw contrib.   =    -465.38585113 Ry
      -> PAW hartree energy AE =     182.33384145 Ry
      -> PAW hartree energy PS =    -172.92025627 Ry
      -> PAW xc energy AE      =    -497.16519209 Ry
      -> PAW xc energy PS      =      22.36575579 Ry
      -> total E_H with PAW    =      66.28143812 Ry
      -> total E_XC with PAW   =    -504.53144646 Ry

     total magnetization       =     7.00 Bohr mag/cell
     absolute magnetization    =     7.21 Bohr mag/cell

     convergence has been achieved in  18 iterations

     Forces acting on atoms (cartesian axes, Ry/au):

     atom    1 type  1   force =    -0.00000000   -0.00000000   -0.00000000
     atom    2 type  2   force =     0.00000000    0.00000000    0.00000000
     The non-local contrib.  to forces
     atom    1 type  1   force =     0.00000000   -0.00000000   -0.00000000
     atom    2 type  2   force =     0.00000000    0.00000000    0.00000000
     The ionic contribution  to forces
     atom    1 type  1   force =     0.00000000   -0.00000000   -0.00000000
     atom    2 type  2   force =    -0.00000000    0.00000000    0.00000000
     The local contribution  to forces
     atom    1 type  1   force =     0.00000000   -0.00000000   -0.00000000
     atom    2 type  2   force =    -0.00000000    0.00000000    0.00000000
     The core correction contribution to forces
     atom    1 type  1   force =     0.00000000   -0.00000000   -0.00000000
     atom    2 type  2   force =     0.00000000   -0.00000000   -0.00000000
     The Hubbard contrib.    to forces
     atom    1 type  1   force =     0.00000000    0.00000000    0.00000000
     atom    2 type  2   force =     0.00000000    0.00000000    0.00000000
     The SCF correction term to forces
     atom    1 type  1   force =     0.00000000   -0.00000000    0.00000000
     atom    2 type  2   force =    -0.00000000    0.00000000    0.00000000

     Total force =     0.000000     Total SCF correction =     0.000000


     Computing stress (Cartesian axis) and pressure

          total   stress  (Ry/bohr**3)                   (kbar)     P=       -9.40
  -0.00006392   0.00000000   0.00000000           -9.40        0.00        0.00
   0.00000000  -0.00006392   0.00000000            0.00       -9.40        0.00
   0.00000000   0.00000000  -0.00006392            0.00        0.00       -9.40

     kinetic stress (kbar)  16557.96      0.00      0.00
                                0.00  16557.96     -0.00
                                0.00     -0.00  16557.96

     local   stress (kbar)   8838.46      0.00     -0.00
                                0.00   8838.46      0.00
                               -0.00      0.00   8838.46

     nonloc. stress (kbar)  12090.48      0.00     -0.00
                                0.00  12090.48      0.00
                               -0.00      0.00  12090.48

     hartree stress (kbar)  13230.83      0.00      0.00
                                0.00  13230.83      0.00
                                0.00      0.00  13230.83

     exc-cor stress (kbar)  -5750.11     -0.00      0.00
                               -0.00  -5750.11     -0.00
                                0.00     -0.00  -5750.11

     corecor stress (kbar)   -737.58     -0.00      0.00
                               -0.00   -737.58     -0.00
                                0.00     -0.00   -737.58

     ewald   stress (kbar) -44239.45      0.00     -0.00
                                0.00 -44239.45      0.00
                               -0.00      0.00 -44239.45

     hubbard stress (kbar)      0.00      0.00      0.00
                                0.00      0.00      0.00
                                0.00      0.00      0.00

     DFT-D   stress (kbar)      0.00      0.00      0.00
                                0.00      0.00      0.00
                                0.00      0.00      0.00

     XDM     stress (kbar)      0.00      0.00      0.00
                                0.00      0.00      0.00
                                0.00      0.00      0.00

     dft-nl  stress (kbar)      0.00      0.00      0.00
                                0.00      0.00      0.00
                                0.00      0.00      0.00

     TS-vdW  stress (kbar)      0.00      0.00      0.00
                                0.00      0.00      0.00
                                0.00      0.00      0.00

     MDB     stress (kbar)      0.00      0.00      0.00
                                0.00      0.00      0.00
                                0.00      0.00      0.00

     3D-RISM stress (kbar)      0.00      0.00      0.00
                                0.00      0.00      0.00
                                0.00      0.00      0.00


     Writing all to output data dir /nfs/home/trewicedwa/qe/out/GdN_FCC-scf.save/
 
     init_run     :      2.45s CPU      3.30s WALL (       1 calls)
     electrons    :    293.93s CPU    297.57s WALL (       1 calls)
     forces       :      0.05s CPU      0.05s WALL (       1 calls)
     stress       :      1.98s CPU      1.98s WALL (       1 calls)

     Called by init_run:
     wfcinit      :      0.12s CPU      0.13s WALL (       1 calls)
     wfcinit:atom :      0.00s CPU      0.00s WALL (      10 calls)
     wfcinit:wfcr :      0.12s CPU      0.13s WALL (      10 calls)
     potinit      :      0.66s CPU      0.98s WALL (       1 calls)
     hinit0       :      0.14s CPU      0.45s WALL (       1 calls)

     Called by electrons:
     c_bands      :      3.41s CPU      3.62s WALL (      18 calls)
     sum_band     :    116.26s CPU    117.22s WALL (      18 calls)
     v_of_rho     :     34.34s CPU     34.38s WALL (      19 calls)
     v_h          :      0.00s CPU      0.01s WALL (      19 calls)
     v_xc         :     34.35s CPU     34.37s WALL (      21 calls)
     newd         :     38.68s CPU     38.71s WALL (      19 calls)
     PAW_pot      :     45.30s CPU     47.75s WALL (      19 calls)
     mix_rho      :      0.06s CPU      0.06s WALL (      18 calls)

     Called by c_bands:
     init_us_2    :      0.05s CPU      0.06s WALL (     390 calls)
     init_us_2:cp :      0.05s CPU      0.06s WALL (     390 calls)
     cegterg      :      2.99s CPU      3.16s WALL (     180 calls)

     Called by sum_band:
     sum_band:wei :     25.54s CPU     25.81s WALL (      18 calls)
     sum_band:loo :      0.49s CPU      0.51s WALL (      18 calls)
     sum_band:buf :      0.00s CPU      0.00s WALL (     180 calls)
     sum_band:ini :      0.02s CPU      0.03s WALL (     180 calls)
     sum_band:cal :      0.04s CPU      0.04s WALL (     180 calls)
     sum_band:bec :      0.00s CPU      0.00s WALL (     180 calls)
     addusdens    :      4.45s CPU      4.46s WALL (      18 calls)
     addusd:skk   :      0.00s CPU      0.00s WALL (      18 calls)
     addusd:dgemm :      0.02s CPU      0.03s WALL (      36 calls)
     addusd:qvan2 :      0.14s CPU      0.14s WALL (      36 calls)

     Called by *egterg:
     cdiaghg      :      0.29s CPU      0.34s WALL (     678 calls)
     cegterg:over :      0.14s CPU      0.15s WALL (     498 calls)
     cegterg:upda :      0.03s CPU      0.03s WALL (     498 calls)
     cegterg:last :      0.05s CPU      0.05s WALL (     377 calls)
     h_psi        :      2.45s CPU      2.52s WALL (     688 calls)
     s_psi        :      0.05s CPU      0.05s WALL (     688 calls)
     g_psi        :      0.01s CPU      0.01s WALL (     498 calls)

     Called by h_psi:
     h_psi:calbec :      0.12s CPU      0.14s WALL (     688 calls)
     vloc_psi     :      2.25s CPU      2.31s WALL (     688 calls)
     add_vuspsi   :      0.06s CPU      0.06s WALL (     688 calls)

     General routines
     calbec       :      0.17s CPU      0.19s WALL (     918 calls)
     fft          :      1.97s CPU      2.11s WALL (     441 calls)
     ffts         :     20.79s CPU     20.79s WALL (      36 calls)
     fftw         :      2.50s CPU      2.57s WALL (   18832 calls)
 
     Parallel routines

     PAW routines
     PAW_pot      :     45.30s CPU     47.75s WALL (      19 calls)
     PAW_symme    :     42.59s CPU     42.60s WALL (      37 calls)
 
     PWSCF        :   5m31.28s CPU   5m38.11s WALL

 
   This run was terminated on:  18:27:38  16Jul2022            

=------------------------------------------------------------------------------=
   JOB DONE.
=------------------------------------------------------------------------------=
