
     Program PWSCF v.7.1 starts on 13Jul2022 at 17:51: 7 

     This program is part of the open-source Quantum ESPRESSO suite
     for quantum simulation of materials; please cite
         "P. Giannozzi et al., J. Phys.:Condens. Matter 21 395502 (2009);
         "P. Giannozzi et al., J. Phys.:Condens. Matter 29 465901 (2017);
         "P. Giannozzi et al., J. Chem. Phys. 152 154105 (2020);
          URL http://www.quantum-espresso.org", 
     in publications or presentations arising from this work. More details at
     http://www.quantum-espresso.org/quote

     Parallel version (MPI), running on    64 processors

     MPI processes distributed on     2 nodes
     314459 MiB available memory on the printing compute node when the environment starts
 
     Reading input from /nfs/home/trewicedwa/qe/GdN-SC_sfc.in

     Current dimensions of program PWSCF are:
     Max number of different atomic species (ntypx) = 10
     Max number of k-points (npk) =  40000
     Max angular momentum in pseudopotentials (lmaxx) =  4
     Found identity + (  0.0000 -0.5000 -0.5000) symmetry
     This is a supercell, fractional translations are disabled
     Message from routine setup:
     using ibrav=0 with symmetry is DISCOURAGED, use correct ibrav instead
 
     K-points division:     npool     =       4
     R & G space division:  proc/nbgrp/npool/nimage =      16
     Subspace diagonalization in iterative solution of the eigenvalue problem:
     a serial algorithm will be used

 
     Parallelization info
     --------------------
     sticks:   dense  smooth     PW     G-vecs:    dense   smooth      PW
     Min         140     140     40                 5080     5080     762
     Max         141     141     41                 5085     5085     765
     Sum        2253    2253    641                81313    81313   12197
 
     Using Slab Decomposition
 

     Title: 
     GdN_SC-scf                                                                 


     bravais-lattice index     =            0
     lattice parameter (alat)  =       9.4467  a.u.
     unit-cell volume          =     843.0358 (a.u.)^3
     number of atoms/cell      =            8
     number of atomic types    =            2
     number of electrons       =        92.00
     number of Kohn-Sham states=           55
     kinetic-energy cutoff     =      80.0000  Ry
     charge density cutoff     =     320.0000  Ry
     scf convergence threshold =      1.6E-09
     mixing beta               =       0.4000
     number of iterations used =            8  plain     mixing
     Exchange-correlation= PBE
                           (   1   4   3   4   0   0   0)

     celldm(1)=   9.446741  celldm(2)=   0.000000  celldm(3)=   0.000000
     celldm(4)=   0.000000  celldm(5)=   0.000000  celldm(6)=   0.000000

     crystal axes: (cart. coord. in units of alat)
               a(1) = (   1.000000   0.000000   0.000000 )  
               a(2) = (   0.000000   1.000000   0.000000 )  
               a(3) = (   0.000000   0.000000   1.000000 )  

     reciprocal axes: (cart. coord. in units 2 pi/alat)
               b(1) = (  1.000000  0.000000  0.000000 )  
               b(2) = (  0.000000  1.000000  0.000000 )  
               b(3) = (  0.000000  0.000000  1.000000 )  


     PseudoPot. # 1 for Gd read from file:
     /nfs/home/trewicedwa/qe/pseudo/Gd.GGA-PBE-paw-v1.0.UPF
     MD5 check sum: 3e8e0d208da550914ae52eaf991d13de
     Pseudo is Projector augmented-wave + core cor, Zval = 18.0
     Generated using ATOMPAW code
     Shape of augmentation charge: BESSEL
     Using radial grid of 1110 points,  8 beta functions with: 
                l(1) =   0
                l(2) =   0
                l(3) =   1
                l(4) =   1
                l(5) =   2
                l(6) =   2
                l(7) =   3
                l(8) =   3
     Q(r) pseudized with 0 coefficients 


     PseudoPot. # 2 for N  read from file:
     /nfs/home/trewicedwa/qe/pseudo/N.oncvpsp.upf
     MD5 check sum: 563d65bfb082928f0c9eb97172f6c357
     Pseudo is Norm-conserving + core correction, Zval =  5.0
     Generated using ONCVPSP code by D. R. Hamann
     Using radial grid of 1058 points,  4 beta functions with: 
                l(1) =   0
                l(2) =   0
                l(3) =   1
                l(4) =   1

     atomic species   valence    mass     pseudopotential
        Gd            18.00   157.25000     Gd( 1.00)
        N              5.00    14.00670     N ( 1.00)

     Starting magnetic structure 
     atomic species   magnetization
        Gd           0.278
        N            0.100

     48 Sym. Ops., with inversion, found


                                    s                        frac. trans.

      isym =  1     identity                                     

 cryst.   s( 1) = (     1          0          0      )
                  (     0          1          0      )
                  (     0          0          1      )

 cart.    s( 1) = (  1.0000000  0.0000000  0.0000000 )
                  (  0.0000000  1.0000000  0.0000000 )
                  (  0.0000000  0.0000000  1.0000000 )


      isym =  2     180 deg rotation - cart. axis [0,0,1]        

 cryst.   s( 2) = (    -1          0          0      )
                  (     0         -1          0      )
                  (     0          0          1      )

 cart.    s( 2) = ( -1.0000000  0.0000000  0.0000000 )
                  (  0.0000000 -1.0000000  0.0000000 )
                  (  0.0000000  0.0000000  1.0000000 )


      isym =  3     180 deg rotation - cart. axis [0,1,0]        

 cryst.   s( 3) = (    -1          0          0      )
                  (     0          1          0      )
                  (     0          0         -1      )

 cart.    s( 3) = ( -1.0000000  0.0000000  0.0000000 )
                  (  0.0000000  1.0000000  0.0000000 )
                  (  0.0000000  0.0000000 -1.0000000 )


      isym =  4     180 deg rotation - cart. axis [1,0,0]        

 cryst.   s( 4) = (     1          0          0      )
                  (     0         -1          0      )
                  (     0          0         -1      )

 cart.    s( 4) = (  1.0000000  0.0000000  0.0000000 )
                  (  0.0000000 -1.0000000  0.0000000 )
                  (  0.0000000  0.0000000 -1.0000000 )


      isym =  5     180 deg rotation - cart. axis [1,1,0]        

 cryst.   s( 5) = (     0          1          0      )
                  (     1          0          0      )
                  (     0          0         -1      )

 cart.    s( 5) = (  0.0000000  1.0000000  0.0000000 )
                  (  1.0000000  0.0000000  0.0000000 )
                  (  0.0000000  0.0000000 -1.0000000 )


      isym =  6     180 deg rotation - cart. axis [1,-1,0]       

 cryst.   s( 6) = (     0         -1          0      )
                  (    -1          0          0      )
                  (     0          0         -1      )

 cart.    s( 6) = (  0.0000000 -1.0000000  0.0000000 )
                  ( -1.0000000  0.0000000  0.0000000 )
                  (  0.0000000  0.0000000 -1.0000000 )


      isym =  7      90 deg rotation - cart. axis [0,0,-1]       

 cryst.   s( 7) = (     0         -1          0      )
                  (     1          0          0      )
                  (     0          0          1      )

 cart.    s( 7) = (  0.0000000  1.0000000  0.0000000 )
                  ( -1.0000000  0.0000000  0.0000000 )
                  (  0.0000000  0.0000000  1.0000000 )


      isym =  8      90 deg rotation - cart. axis [0,0,1]        

 cryst.   s( 8) = (     0          1          0      )
                  (    -1          0          0      )
                  (     0          0          1      )

 cart.    s( 8) = (  0.0000000 -1.0000000  0.0000000 )
                  (  1.0000000  0.0000000  0.0000000 )
                  (  0.0000000  0.0000000  1.0000000 )


      isym =  9     180 deg rotation - cart. axis [1,0,1]        

 cryst.   s( 9) = (     0          0          1      )
                  (     0         -1          0      )
                  (     1          0          0      )

 cart.    s( 9) = (  0.0000000  0.0000000  1.0000000 )
                  (  0.0000000 -1.0000000  0.0000000 )
                  (  1.0000000  0.0000000  0.0000000 )


      isym = 10     180 deg rotation - cart. axis [-1,0,1]       

 cryst.   s(10) = (     0          0         -1      )
                  (     0         -1          0      )
                  (    -1          0          0      )

 cart.    s(10) = (  0.0000000  0.0000000 -1.0000000 )
                  (  0.0000000 -1.0000000  0.0000000 )
                  ( -1.0000000  0.0000000  0.0000000 )


      isym = 11      90 deg rotation - cart. axis [0,1,0]        

 cryst.   s(11) = (     0          0         -1      )
                  (     0          1          0      )
                  (     1          0          0      )

 cart.    s(11) = (  0.0000000  0.0000000  1.0000000 )
                  (  0.0000000  1.0000000  0.0000000 )
                  ( -1.0000000  0.0000000  0.0000000 )


      isym = 12      90 deg rotation - cart. axis [0,-1,0]       

 cryst.   s(12) = (     0          0          1      )
                  (     0          1          0      )
                  (    -1          0          0      )

 cart.    s(12) = (  0.0000000  0.0000000 -1.0000000 )
                  (  0.0000000  1.0000000  0.0000000 )
                  (  1.0000000  0.0000000  0.0000000 )


      isym = 13     180 deg rotation - cart. axis [0,1,1]        

 cryst.   s(13) = (    -1          0          0      )
                  (     0          0          1      )
                  (     0          1          0      )

 cart.    s(13) = ( -1.0000000  0.0000000  0.0000000 )
                  (  0.0000000  0.0000000  1.0000000 )
                  (  0.0000000  1.0000000  0.0000000 )


      isym = 14     180 deg rotation - cart. axis [0,1,-1]       

 cryst.   s(14) = (    -1          0          0      )
                  (     0          0         -1      )
                  (     0         -1          0      )

 cart.    s(14) = ( -1.0000000  0.0000000  0.0000000 )
                  (  0.0000000  0.0000000 -1.0000000 )
                  (  0.0000000 -1.0000000  0.0000000 )


      isym = 15      90 deg rotation - cart. axis [-1,0,0]       

 cryst.   s(15) = (     1          0          0      )
                  (     0          0         -1      )
                  (     0          1          0      )

 cart.    s(15) = (  1.0000000  0.0000000  0.0000000 )
                  (  0.0000000  0.0000000  1.0000000 )
                  (  0.0000000 -1.0000000  0.0000000 )


      isym = 16      90 deg rotation - cart. axis [1,0,0]        

 cryst.   s(16) = (     1          0          0      )
                  (     0          0          1      )
                  (     0         -1          0      )

 cart.    s(16) = (  1.0000000  0.0000000  0.0000000 )
                  (  0.0000000  0.0000000 -1.0000000 )
                  (  0.0000000  1.0000000  0.0000000 )


      isym = 17     120 deg rotation - cart. axis [-1,-1,-1]     

 cryst.   s(17) = (     0          0          1      )
                  (     1          0          0      )
                  (     0          1          0      )

 cart.    s(17) = (  0.0000000  1.0000000  0.0000000 )
                  (  0.0000000  0.0000000  1.0000000 )
                  (  1.0000000  0.0000000  0.0000000 )


      isym = 18     120 deg rotation - cart. axis [-1,1,1]       

 cryst.   s(18) = (     0          0         -1      )
                  (    -1          0          0      )
                  (     0          1          0      )

 cart.    s(18) = (  0.0000000 -1.0000000  0.0000000 )
                  (  0.0000000  0.0000000  1.0000000 )
                  ( -1.0000000  0.0000000  0.0000000 )


      isym = 19     120 deg rotation - cart. axis [1,1,-1]       

 cryst.   s(19) = (     0          0         -1      )
                  (     1          0          0      )
                  (     0         -1          0      )

 cart.    s(19) = (  0.0000000  1.0000000  0.0000000 )
                  (  0.0000000  0.0000000 -1.0000000 )
                  ( -1.0000000  0.0000000  0.0000000 )


      isym = 20     120 deg rotation - cart. axis [1,-1,1]       

 cryst.   s(20) = (     0          0          1      )
                  (    -1          0          0      )
                  (     0         -1          0      )

 cart.    s(20) = (  0.0000000 -1.0000000  0.0000000 )
                  (  0.0000000  0.0000000 -1.0000000 )
                  (  1.0000000  0.0000000  0.0000000 )


      isym = 21     120 deg rotation - cart. axis [1,1,1]        

 cryst.   s(21) = (     0          1          0      )
                  (     0          0          1      )
                  (     1          0          0      )

 cart.    s(21) = (  0.0000000  0.0000000  1.0000000 )
                  (  1.0000000  0.0000000  0.0000000 )
                  (  0.0000000  1.0000000  0.0000000 )


      isym = 22     120 deg rotation - cart. axis [-1,1,-1]      

 cryst.   s(22) = (     0         -1          0      )
                  (     0          0         -1      )
                  (     1          0          0      )

 cart.    s(22) = (  0.0000000  0.0000000  1.0000000 )
                  ( -1.0000000  0.0000000  0.0000000 )
                  (  0.0000000 -1.0000000  0.0000000 )


      isym = 23     120 deg rotation - cart. axis [1,-1,-1]      

 cryst.   s(23) = (     0         -1          0      )
                  (     0          0          1      )
                  (    -1          0          0      )

 cart.    s(23) = (  0.0000000  0.0000000 -1.0000000 )
                  ( -1.0000000  0.0000000  0.0000000 )
                  (  0.0000000  1.0000000  0.0000000 )


      isym = 24     120 deg rotation - cart. axis [-1,-1,1]      

 cryst.   s(24) = (     0          1          0      )
                  (     0          0         -1      )
                  (    -1          0          0      )

 cart.    s(24) = (  0.0000000  0.0000000 -1.0000000 )
                  (  1.0000000  0.0000000  0.0000000 )
                  (  0.0000000 -1.0000000  0.0000000 )


      isym = 25     inversion                                    

 cryst.   s(25) = (    -1          0          0      )
                  (     0         -1          0      )
                  (     0          0         -1      )

 cart.    s(25) = ( -1.0000000  0.0000000  0.0000000 )
                  (  0.0000000 -1.0000000  0.0000000 )
                  (  0.0000000  0.0000000 -1.0000000 )


      isym = 26     inv. 180 deg rotation - cart. axis [0,0,1]   

 cryst.   s(26) = (     1          0          0      )
                  (     0          1          0      )
                  (     0          0         -1      )

 cart.    s(26) = (  1.0000000  0.0000000  0.0000000 )
                  (  0.0000000  1.0000000  0.0000000 )
                  (  0.0000000  0.0000000 -1.0000000 )


      isym = 27     inv. 180 deg rotation - cart. axis [0,1,0]   

 cryst.   s(27) = (     1          0          0      )
                  (     0         -1          0      )
                  (     0          0          1      )

 cart.    s(27) = (  1.0000000  0.0000000  0.0000000 )
                  (  0.0000000 -1.0000000  0.0000000 )
                  (  0.0000000  0.0000000  1.0000000 )


      isym = 28     inv. 180 deg rotation - cart. axis [1,0,0]   

 cryst.   s(28) = (    -1          0          0      )
                  (     0          1          0      )
                  (     0          0          1      )

 cart.    s(28) = ( -1.0000000  0.0000000  0.0000000 )
                  (  0.0000000  1.0000000  0.0000000 )
                  (  0.0000000  0.0000000  1.0000000 )


      isym = 29     inv. 180 deg rotation - cart. axis [1,1,0]   

 cryst.   s(29) = (     0         -1          0      )
                  (    -1          0          0      )
                  (     0          0          1      )

 cart.    s(29) = (  0.0000000 -1.0000000  0.0000000 )
                  ( -1.0000000  0.0000000  0.0000000 )
                  (  0.0000000  0.0000000  1.0000000 )


      isym = 30     inv. 180 deg rotation - cart. axis [1,-1,0]  

 cryst.   s(30) = (     0          1          0      )
                  (     1          0          0      )
                  (     0          0          1      )

 cart.    s(30) = (  0.0000000  1.0000000  0.0000000 )
                  (  1.0000000  0.0000000  0.0000000 )
                  (  0.0000000  0.0000000  1.0000000 )


      isym = 31     inv.  90 deg rotation - cart. axis [0,0,-1]  

 cryst.   s(31) = (     0          1          0      )
                  (    -1          0          0      )
                  (     0          0         -1      )

 cart.    s(31) = (  0.0000000 -1.0000000  0.0000000 )
                  (  1.0000000  0.0000000  0.0000000 )
                  (  0.0000000  0.0000000 -1.0000000 )


      isym = 32     inv.  90 deg rotation - cart. axis [0,0,1]   

 cryst.   s(32) = (     0         -1          0      )
                  (     1          0          0      )
                  (     0          0         -1      )

 cart.    s(32) = (  0.0000000  1.0000000  0.0000000 )
                  ( -1.0000000  0.0000000  0.0000000 )
                  (  0.0000000  0.0000000 -1.0000000 )


      isym = 33     inv. 180 deg rotation - cart. axis [1,0,1]   

 cryst.   s(33) = (     0          0         -1      )
                  (     0          1          0      )
                  (    -1          0          0      )

 cart.    s(33) = (  0.0000000  0.0000000 -1.0000000 )
                  (  0.0000000  1.0000000  0.0000000 )
                  ( -1.0000000  0.0000000  0.0000000 )


      isym = 34     inv. 180 deg rotation - cart. axis [-1,0,1]  

 cryst.   s(34) = (     0          0          1      )
                  (     0          1          0      )
                  (     1          0          0      )

 cart.    s(34) = (  0.0000000  0.0000000  1.0000000 )
                  (  0.0000000  1.0000000  0.0000000 )
                  (  1.0000000  0.0000000  0.0000000 )


      isym = 35     inv.  90 deg rotation - cart. axis [0,1,0]   

 cryst.   s(35) = (     0          0          1      )
                  (     0         -1          0      )
                  (    -1          0          0      )

 cart.    s(35) = (  0.0000000  0.0000000 -1.0000000 )
                  (  0.0000000 -1.0000000  0.0000000 )
                  (  1.0000000  0.0000000  0.0000000 )


      isym = 36     inv.  90 deg rotation - cart. axis [0,-1,0]  

 cryst.   s(36) = (     0          0         -1      )
                  (     0         -1          0      )
                  (     1          0          0      )

 cart.    s(36) = (  0.0000000  0.0000000  1.0000000 )
                  (  0.0000000 -1.0000000  0.0000000 )
                  ( -1.0000000  0.0000000  0.0000000 )


      isym = 37     inv. 180 deg rotation - cart. axis [0,1,1]   

 cryst.   s(37) = (     1          0          0      )
                  (     0          0         -1      )
                  (     0         -1          0      )

 cart.    s(37) = (  1.0000000  0.0000000  0.0000000 )
                  (  0.0000000  0.0000000 -1.0000000 )
                  (  0.0000000 -1.0000000  0.0000000 )


      isym = 38     inv. 180 deg rotation - cart. axis [0,1,-1]  

 cryst.   s(38) = (     1          0          0      )
                  (     0          0          1      )
                  (     0          1          0      )

 cart.    s(38) = (  1.0000000  0.0000000  0.0000000 )
                  (  0.0000000  0.0000000  1.0000000 )
                  (  0.0000000  1.0000000  0.0000000 )


      isym = 39     inv.  90 deg rotation - cart. axis [-1,0,0]  

 cryst.   s(39) = (    -1          0          0      )
                  (     0          0          1      )
                  (     0         -1          0      )

 cart.    s(39) = ( -1.0000000  0.0000000  0.0000000 )
                  (  0.0000000  0.0000000 -1.0000000 )
                  (  0.0000000  1.0000000  0.0000000 )


      isym = 40     inv.  90 deg rotation - cart. axis [1,0,0]   

 cryst.   s(40) = (    -1          0          0      )
                  (     0          0         -1      )
                  (     0          1          0      )

 cart.    s(40) = ( -1.0000000  0.0000000  0.0000000 )
                  (  0.0000000  0.0000000  1.0000000 )
                  (  0.0000000 -1.0000000  0.0000000 )


      isym = 41     inv. 120 deg rotation - cart. axis [-1,-1,-1]

 cryst.   s(41) = (     0          0         -1      )
                  (    -1          0          0      )
                  (     0         -1          0      )

 cart.    s(41) = (  0.0000000 -1.0000000  0.0000000 )
                  (  0.0000000  0.0000000 -1.0000000 )
                  ( -1.0000000  0.0000000  0.0000000 )


      isym = 42     inv. 120 deg rotation - cart. axis [-1,1,1]  

 cryst.   s(42) = (     0          0          1      )
                  (     1          0          0      )
                  (     0         -1          0      )

 cart.    s(42) = (  0.0000000  1.0000000  0.0000000 )
                  (  0.0000000  0.0000000 -1.0000000 )
                  (  1.0000000  0.0000000  0.0000000 )


      isym = 43     inv. 120 deg rotation - cart. axis [1,1,-1]  

 cryst.   s(43) = (     0          0          1      )
                  (    -1          0          0      )
                  (     0          1          0      )

 cart.    s(43) = (  0.0000000 -1.0000000  0.0000000 )
                  (  0.0000000  0.0000000  1.0000000 )
                  (  1.0000000  0.0000000  0.0000000 )


      isym = 44     inv. 120 deg rotation - cart. axis [1,-1,1]  

 cryst.   s(44) = (     0          0         -1      )
                  (     1          0          0      )
                  (     0          1          0      )

 cart.    s(44) = (  0.0000000  1.0000000  0.0000000 )
                  (  0.0000000  0.0000000  1.0000000 )
                  ( -1.0000000  0.0000000  0.0000000 )


      isym = 45     inv. 120 deg rotation - cart. axis [1,1,1]   

 cryst.   s(45) = (     0         -1          0      )
                  (     0          0         -1      )
                  (    -1          0          0      )

 cart.    s(45) = (  0.0000000  0.0000000 -1.0000000 )
                  ( -1.0000000  0.0000000  0.0000000 )
                  (  0.0000000 -1.0000000  0.0000000 )


      isym = 46     inv. 120 deg rotation - cart. axis [-1,1,-1] 

 cryst.   s(46) = (     0          1          0      )
                  (     0          0          1      )
                  (    -1          0          0      )

 cart.    s(46) = (  0.0000000  0.0000000 -1.0000000 )
                  (  1.0000000  0.0000000  0.0000000 )
                  (  0.0000000  1.0000000  0.0000000 )


      isym = 47     inv. 120 deg rotation - cart. axis [1,-1,-1] 

 cryst.   s(47) = (     0          1          0      )
                  (     0          0         -1      )
                  (     1          0          0      )

 cart.    s(47) = (  0.0000000  0.0000000  1.0000000 )
                  (  1.0000000  0.0000000  0.0000000 )
                  (  0.0000000 -1.0000000  0.0000000 )


      isym = 48     inv. 120 deg rotation - cart. axis [-1,-1,1] 

 cryst.   s(48) = (     0         -1          0      )
                  (     0          0          1      )
                  (     1          0          0      )

 cart.    s(48) = (  0.0000000  0.0000000  1.0000000 )
                  ( -1.0000000  0.0000000  0.0000000 )
                  (  0.0000000  1.0000000  0.0000000 )


   Cartesian axes

     site n.     atom                  positions (alat units)
         1           Gd  tau(   1) = (   0.0000000   0.0000000   0.0000000  )
         2           Gd  tau(   2) = (   0.0000000   0.5000000   0.5000000  )
         3           Gd  tau(   3) = (   0.5000000   0.0000000   0.5000000  )
         4           Gd  tau(   4) = (   0.5000000   0.5000000   0.0000000  )
         5           N   tau(   5) = (   0.5000000   0.5000000   0.5000000  )
         6           N   tau(   6) = (   0.5000000   0.0000000   0.0000000  )
         7           N   tau(   7) = (   0.0000000   0.5000000   0.0000000  )
         8           N   tau(   8) = (   0.0000000   0.0000000   0.5000000  )

   Crystallographic axes

     site n.     atom                  positions (cryst. coord.)
         1           Gd  tau(   1) = (  0.0000000  0.0000000  0.0000000  )
         2           Gd  tau(   2) = (  0.0000000  0.5000000  0.5000000  )
         3           Gd  tau(   3) = (  0.5000000  0.0000000  0.5000000  )
         4           Gd  tau(   4) = (  0.5000000  0.5000000  0.0000000  )
         5           N   tau(   5) = (  0.5000000  0.5000000  0.5000000  )
         6           N   tau(   6) = (  0.5000000  0.0000000  0.0000000  )
         7           N   tau(   7) = (  0.0000000  0.5000000  0.0000000  )
         8           N   tau(   8) = (  0.0000000  0.0000000  0.5000000  )

     number of k points=   120  Marzari-Vanderbilt smearing, width (Ry)=  0.0147
                       cart. coord. in units 2pi/alat
        k(    1) = (   0.0000000   0.0000000   0.0000000), wk =   0.0003644
        k(    2) = (   0.0000000   0.0000000   0.0714286), wk =   0.0021866
        k(    3) = (   0.0000000   0.0000000   0.1428571), wk =   0.0021866
        k(    4) = (   0.0000000   0.0000000   0.2142857), wk =   0.0021866
        k(    5) = (   0.0000000   0.0000000   0.2857143), wk =   0.0021866
        k(    6) = (   0.0000000   0.0000000   0.3571429), wk =   0.0021866
        k(    7) = (   0.0000000   0.0000000   0.4285714), wk =   0.0021866
        k(    8) = (   0.0000000   0.0000000  -0.5000000), wk =   0.0010933
        k(    9) = (   0.0000000   0.0714286   0.0714286), wk =   0.0043732
        k(   10) = (   0.0000000   0.0714286   0.1428571), wk =   0.0087464
        k(   11) = (   0.0000000   0.0714286   0.2142857), wk =   0.0087464
        k(   12) = (   0.0000000   0.0714286   0.2857143), wk =   0.0087464
        k(   13) = (   0.0000000   0.0714286   0.3571429), wk =   0.0087464
        k(   14) = (   0.0000000   0.0714286   0.4285714), wk =   0.0087464
        k(   15) = (   0.0000000   0.0714286  -0.5000000), wk =   0.0043732
        k(   16) = (   0.0000000   0.1428571   0.1428571), wk =   0.0043732
        k(   17) = (   0.0000000   0.1428571   0.2142857), wk =   0.0087464
        k(   18) = (   0.0000000   0.1428571   0.2857143), wk =   0.0087464
        k(   19) = (   0.0000000   0.1428571   0.3571429), wk =   0.0087464
        k(   20) = (   0.0000000   0.1428571   0.4285714), wk =   0.0087464
        k(   21) = (   0.0000000   0.1428571  -0.5000000), wk =   0.0043732
        k(   22) = (   0.0000000   0.2142857   0.2142857), wk =   0.0043732
        k(   23) = (   0.0000000   0.2142857   0.2857143), wk =   0.0087464
        k(   24) = (   0.0000000   0.2142857   0.3571429), wk =   0.0087464
        k(   25) = (   0.0000000   0.2142857   0.4285714), wk =   0.0087464
        k(   26) = (   0.0000000   0.2142857  -0.5000000), wk =   0.0043732
        k(   27) = (   0.0000000   0.2857143   0.2857143), wk =   0.0043732
        k(   28) = (   0.0000000   0.2857143   0.3571429), wk =   0.0087464
        k(   29) = (   0.0000000   0.2857143   0.4285714), wk =   0.0087464
        k(   30) = (   0.0000000   0.2857143  -0.5000000), wk =   0.0043732
        k(   31) = (   0.0000000   0.3571429   0.3571429), wk =   0.0043732
        k(   32) = (   0.0000000   0.3571429   0.4285714), wk =   0.0087464
        k(   33) = (   0.0000000   0.3571429  -0.5000000), wk =   0.0043732
        k(   34) = (   0.0000000   0.4285714   0.4285714), wk =   0.0043732
        k(   35) = (   0.0000000   0.4285714  -0.5000000), wk =   0.0043732
        k(   36) = (   0.0000000  -0.5000000  -0.5000000), wk =   0.0010933
        k(   37) = (   0.0714286   0.0714286   0.0714286), wk =   0.0029155
        k(   38) = (   0.0714286   0.0714286   0.1428571), wk =   0.0087464
        k(   39) = (   0.0714286   0.0714286   0.2142857), wk =   0.0087464
        k(   40) = (   0.0714286   0.0714286   0.2857143), wk =   0.0087464
        k(   41) = (   0.0714286   0.0714286   0.3571429), wk =   0.0087464
        k(   42) = (   0.0714286   0.0714286   0.4285714), wk =   0.0087464
        k(   43) = (   0.0714286   0.0714286  -0.5000000), wk =   0.0043732
        k(   44) = (   0.0714286   0.1428571   0.1428571), wk =   0.0087464
        k(   45) = (   0.0714286   0.1428571   0.2142857), wk =   0.0174927
        k(   46) = (   0.0714286   0.1428571   0.2857143), wk =   0.0174927
        k(   47) = (   0.0714286   0.1428571   0.3571429), wk =   0.0174927
        k(   48) = (   0.0714286   0.1428571   0.4285714), wk =   0.0174927
        k(   49) = (   0.0714286   0.1428571  -0.5000000), wk =   0.0087464
        k(   50) = (   0.0714286   0.2142857   0.2142857), wk =   0.0087464
        k(   51) = (   0.0714286   0.2142857   0.2857143), wk =   0.0174927
        k(   52) = (   0.0714286   0.2142857   0.3571429), wk =   0.0174927
        k(   53) = (   0.0714286   0.2142857   0.4285714), wk =   0.0174927
        k(   54) = (   0.0714286   0.2142857  -0.5000000), wk =   0.0087464
        k(   55) = (   0.0714286   0.2857143   0.2857143), wk =   0.0087464
        k(   56) = (   0.0714286   0.2857143   0.3571429), wk =   0.0174927
        k(   57) = (   0.0714286   0.2857143   0.4285714), wk =   0.0174927
        k(   58) = (   0.0714286   0.2857143  -0.5000000), wk =   0.0087464
        k(   59) = (   0.0714286   0.3571429   0.3571429), wk =   0.0087464
        k(   60) = (   0.0714286   0.3571429   0.4285714), wk =   0.0174927
        k(   61) = (   0.0714286   0.3571429  -0.5000000), wk =   0.0087464
        k(   62) = (   0.0714286   0.4285714   0.4285714), wk =   0.0087464
        k(   63) = (   0.0714286   0.4285714  -0.5000000), wk =   0.0087464
        k(   64) = (   0.0714286  -0.5000000  -0.5000000), wk =   0.0021866
        k(   65) = (   0.1428571   0.1428571   0.1428571), wk =   0.0029155
        k(   66) = (   0.1428571   0.1428571   0.2142857), wk =   0.0087464
        k(   67) = (   0.1428571   0.1428571   0.2857143), wk =   0.0087464
        k(   68) = (   0.1428571   0.1428571   0.3571429), wk =   0.0087464
        k(   69) = (   0.1428571   0.1428571   0.4285714), wk =   0.0087464
        k(   70) = (   0.1428571   0.1428571  -0.5000000), wk =   0.0043732
        k(   71) = (   0.1428571   0.2142857   0.2142857), wk =   0.0087464
        k(   72) = (   0.1428571   0.2142857   0.2857143), wk =   0.0174927
        k(   73) = (   0.1428571   0.2142857   0.3571429), wk =   0.0174927
        k(   74) = (   0.1428571   0.2142857   0.4285714), wk =   0.0174927
        k(   75) = (   0.1428571   0.2142857  -0.5000000), wk =   0.0087464
        k(   76) = (   0.1428571   0.2857143   0.2857143), wk =   0.0087464
        k(   77) = (   0.1428571   0.2857143   0.3571429), wk =   0.0174927
        k(   78) = (   0.1428571   0.2857143   0.4285714), wk =   0.0174927
        k(   79) = (   0.1428571   0.2857143  -0.5000000), wk =   0.0087464
        k(   80) = (   0.1428571   0.3571429   0.3571429), wk =   0.0087464
        k(   81) = (   0.1428571   0.3571429   0.4285714), wk =   0.0174927
        k(   82) = (   0.1428571   0.3571429  -0.5000000), wk =   0.0087464
        k(   83) = (   0.1428571   0.4285714   0.4285714), wk =   0.0087464
        k(   84) = (   0.1428571   0.4285714  -0.5000000), wk =   0.0087464
        k(   85) = (   0.1428571  -0.5000000  -0.5000000), wk =   0.0021866
        k(   86) = (   0.2142857   0.2142857   0.2142857), wk =   0.0029155
        k(   87) = (   0.2142857   0.2142857   0.2857143), wk =   0.0087464
        k(   88) = (   0.2142857   0.2142857   0.3571429), wk =   0.0087464
        k(   89) = (   0.2142857   0.2142857   0.4285714), wk =   0.0087464
        k(   90) = (   0.2142857   0.2142857  -0.5000000), wk =   0.0043732
        k(   91) = (   0.2142857   0.2857143   0.2857143), wk =   0.0087464
        k(   92) = (   0.2142857   0.2857143   0.3571429), wk =   0.0174927
        k(   93) = (   0.2142857   0.2857143   0.4285714), wk =   0.0174927
        k(   94) = (   0.2142857   0.2857143  -0.5000000), wk =   0.0087464
        k(   95) = (   0.2142857   0.3571429   0.3571429), wk =   0.0087464
        k(   96) = (   0.2142857   0.3571429   0.4285714), wk =   0.0174927
        k(   97) = (   0.2142857   0.3571429  -0.5000000), wk =   0.0087464
        k(   98) = (   0.2142857   0.4285714   0.4285714), wk =   0.0087464
        k(   99) = (   0.2142857   0.4285714  -0.5000000), wk =   0.0087464
        k(  100) = (   0.2142857  -0.5000000  -0.5000000), wk =   0.0021866
        k(  101) = (   0.2857143   0.2857143   0.2857143), wk =   0.0029155
        k(  102) = (   0.2857143   0.2857143   0.3571429), wk =   0.0087464
        k(  103) = (   0.2857143   0.2857143   0.4285714), wk =   0.0087464
        k(  104) = (   0.2857143   0.2857143  -0.5000000), wk =   0.0043732
        k(  105) = (   0.2857143   0.3571429   0.3571429), wk =   0.0087464
        k(  106) = (   0.2857143   0.3571429   0.4285714), wk =   0.0174927
        k(  107) = (   0.2857143   0.3571429  -0.5000000), wk =   0.0087464
        k(  108) = (   0.2857143   0.4285714   0.4285714), wk =   0.0087464
        k(  109) = (   0.2857143   0.4285714  -0.5000000), wk =   0.0087464
        k(  110) = (   0.2857143  -0.5000000  -0.5000000), wk =   0.0021866
        k(  111) = (   0.3571429   0.3571429   0.3571429), wk =   0.0029155
        k(  112) = (   0.3571429   0.3571429   0.4285714), wk =   0.0087464
        k(  113) = (   0.3571429   0.3571429  -0.5000000), wk =   0.0043732
        k(  114) = (   0.3571429   0.4285714   0.4285714), wk =   0.0087464
        k(  115) = (   0.3571429   0.4285714  -0.5000000), wk =   0.0087464
        k(  116) = (   0.3571429  -0.5000000  -0.5000000), wk =   0.0021866
        k(  117) = (   0.4285714   0.4285714   0.4285714), wk =   0.0029155
        k(  118) = (   0.4285714   0.4285714  -0.5000000), wk =   0.0043732
        k(  119) = (   0.4285714  -0.5000000  -0.5000000), wk =   0.0021866
        k(  120) = (  -0.5000000  -0.5000000  -0.5000000), wk =   0.0003644

                       cryst. coord.
        k(    1) = (   0.0000000   0.0000000   0.0000000), wk =   0.0003644
        k(    2) = (   0.0000000   0.0000000   0.0714286), wk =   0.0021866
        k(    3) = (   0.0000000   0.0000000   0.1428571), wk =   0.0021866
        k(    4) = (   0.0000000   0.0000000   0.2142857), wk =   0.0021866
        k(    5) = (   0.0000000   0.0000000   0.2857143), wk =   0.0021866
        k(    6) = (   0.0000000   0.0000000   0.3571429), wk =   0.0021866
        k(    7) = (   0.0000000   0.0000000   0.4285714), wk =   0.0021866
        k(    8) = (   0.0000000   0.0000000  -0.5000000), wk =   0.0010933
        k(    9) = (   0.0000000   0.0714286   0.0714286), wk =   0.0043732
        k(   10) = (   0.0000000   0.0714286   0.1428571), wk =   0.0087464
        k(   11) = (   0.0000000   0.0714286   0.2142857), wk =   0.0087464
        k(   12) = (   0.0000000   0.0714286   0.2857143), wk =   0.0087464
        k(   13) = (   0.0000000   0.0714286   0.3571429), wk =   0.0087464
        k(   14) = (   0.0000000   0.0714286   0.4285714), wk =   0.0087464
        k(   15) = (   0.0000000   0.0714286  -0.5000000), wk =   0.0043732
        k(   16) = (   0.0000000   0.1428571   0.1428571), wk =   0.0043732
        k(   17) = (   0.0000000   0.1428571   0.2142857), wk =   0.0087464
        k(   18) = (   0.0000000   0.1428571   0.2857143), wk =   0.0087464
        k(   19) = (   0.0000000   0.1428571   0.3571429), wk =   0.0087464
        k(   20) = (   0.0000000   0.1428571   0.4285714), wk =   0.0087464
        k(   21) = (   0.0000000   0.1428571  -0.5000000), wk =   0.0043732
        k(   22) = (   0.0000000   0.2142857   0.2142857), wk =   0.0043732
        k(   23) = (   0.0000000   0.2142857   0.2857143), wk =   0.0087464
        k(   24) = (   0.0000000   0.2142857   0.3571429), wk =   0.0087464
        k(   25) = (   0.0000000   0.2142857   0.4285714), wk =   0.0087464
        k(   26) = (   0.0000000   0.2142857  -0.5000000), wk =   0.0043732
        k(   27) = (   0.0000000   0.2857143   0.2857143), wk =   0.0043732
        k(   28) = (   0.0000000   0.2857143   0.3571429), wk =   0.0087464
        k(   29) = (   0.0000000   0.2857143   0.4285714), wk =   0.0087464
        k(   30) = (   0.0000000   0.2857143  -0.5000000), wk =   0.0043732
        k(   31) = (   0.0000000   0.3571429   0.3571429), wk =   0.0043732
        k(   32) = (   0.0000000   0.3571429   0.4285714), wk =   0.0087464
        k(   33) = (   0.0000000   0.3571429  -0.5000000), wk =   0.0043732
        k(   34) = (   0.0000000   0.4285714   0.4285714), wk =   0.0043732
        k(   35) = (   0.0000000   0.4285714  -0.5000000), wk =   0.0043732
        k(   36) = (   0.0000000  -0.5000000  -0.5000000), wk =   0.0010933
        k(   37) = (   0.0714286   0.0714286   0.0714286), wk =   0.0029155
        k(   38) = (   0.0714286   0.0714286   0.1428571), wk =   0.0087464
        k(   39) = (   0.0714286   0.0714286   0.2142857), wk =   0.0087464
        k(   40) = (   0.0714286   0.0714286   0.2857143), wk =   0.0087464
        k(   41) = (   0.0714286   0.0714286   0.3571429), wk =   0.0087464
        k(   42) = (   0.0714286   0.0714286   0.4285714), wk =   0.0087464
        k(   43) = (   0.0714286   0.0714286  -0.5000000), wk =   0.0043732
        k(   44) = (   0.0714286   0.1428571   0.1428571), wk =   0.0087464
        k(   45) = (   0.0714286   0.1428571   0.2142857), wk =   0.0174927
        k(   46) = (   0.0714286   0.1428571   0.2857143), wk =   0.0174927
        k(   47) = (   0.0714286   0.1428571   0.3571429), wk =   0.0174927
        k(   48) = (   0.0714286   0.1428571   0.4285714), wk =   0.0174927
        k(   49) = (   0.0714286   0.1428571  -0.5000000), wk =   0.0087464
        k(   50) = (   0.0714286   0.2142857   0.2142857), wk =   0.0087464
        k(   51) = (   0.0714286   0.2142857   0.2857143), wk =   0.0174927
        k(   52) = (   0.0714286   0.2142857   0.3571429), wk =   0.0174927
        k(   53) = (   0.0714286   0.2142857   0.4285714), wk =   0.0174927
        k(   54) = (   0.0714286   0.2142857  -0.5000000), wk =   0.0087464
        k(   55) = (   0.0714286   0.2857143   0.2857143), wk =   0.0087464
        k(   56) = (   0.0714286   0.2857143   0.3571429), wk =   0.0174927
        k(   57) = (   0.0714286   0.2857143   0.4285714), wk =   0.0174927
        k(   58) = (   0.0714286   0.2857143  -0.5000000), wk =   0.0087464
        k(   59) = (   0.0714286   0.3571429   0.3571429), wk =   0.0087464
        k(   60) = (   0.0714286   0.3571429   0.4285714), wk =   0.0174927
        k(   61) = (   0.0714286   0.3571429  -0.5000000), wk =   0.0087464
        k(   62) = (   0.0714286   0.4285714   0.4285714), wk =   0.0087464
        k(   63) = (   0.0714286   0.4285714  -0.5000000), wk =   0.0087464
        k(   64) = (   0.0714286  -0.5000000  -0.5000000), wk =   0.0021866
        k(   65) = (   0.1428571   0.1428571   0.1428571), wk =   0.0029155
        k(   66) = (   0.1428571   0.1428571   0.2142857), wk =   0.0087464
        k(   67) = (   0.1428571   0.1428571   0.2857143), wk =   0.0087464
        k(   68) = (   0.1428571   0.1428571   0.3571429), wk =   0.0087464
        k(   69) = (   0.1428571   0.1428571   0.4285714), wk =   0.0087464
        k(   70) = (   0.1428571   0.1428571  -0.5000000), wk =   0.0043732
        k(   71) = (   0.1428571   0.2142857   0.2142857), wk =   0.0087464
        k(   72) = (   0.1428571   0.2142857   0.2857143), wk =   0.0174927
        k(   73) = (   0.1428571   0.2142857   0.3571429), wk =   0.0174927
        k(   74) = (   0.1428571   0.2142857   0.4285714), wk =   0.0174927
        k(   75) = (   0.1428571   0.2142857  -0.5000000), wk =   0.0087464
        k(   76) = (   0.1428571   0.2857143   0.2857143), wk =   0.0087464
        k(   77) = (   0.1428571   0.2857143   0.3571429), wk =   0.0174927
        k(   78) = (   0.1428571   0.2857143   0.4285714), wk =   0.0174927
        k(   79) = (   0.1428571   0.2857143  -0.5000000), wk =   0.0087464
        k(   80) = (   0.1428571   0.3571429   0.3571429), wk =   0.0087464
        k(   81) = (   0.1428571   0.3571429   0.4285714), wk =   0.0174927
        k(   82) = (   0.1428571   0.3571429  -0.5000000), wk =   0.0087464
        k(   83) = (   0.1428571   0.4285714   0.4285714), wk =   0.0087464
        k(   84) = (   0.1428571   0.4285714  -0.5000000), wk =   0.0087464
        k(   85) = (   0.1428571  -0.5000000  -0.5000000), wk =   0.0021866
        k(   86) = (   0.2142857   0.2142857   0.2142857), wk =   0.0029155
        k(   87) = (   0.2142857   0.2142857   0.2857143), wk =   0.0087464
        k(   88) = (   0.2142857   0.2142857   0.3571429), wk =   0.0087464
        k(   89) = (   0.2142857   0.2142857   0.4285714), wk =   0.0087464
        k(   90) = (   0.2142857   0.2142857  -0.5000000), wk =   0.0043732
        k(   91) = (   0.2142857   0.2857143   0.2857143), wk =   0.0087464
        k(   92) = (   0.2142857   0.2857143   0.3571429), wk =   0.0174927
        k(   93) = (   0.2142857   0.2857143   0.4285714), wk =   0.0174927
        k(   94) = (   0.2142857   0.2857143  -0.5000000), wk =   0.0087464
        k(   95) = (   0.2142857   0.3571429   0.3571429), wk =   0.0087464
        k(   96) = (   0.2142857   0.3571429   0.4285714), wk =   0.0174927
        k(   97) = (   0.2142857   0.3571429  -0.5000000), wk =   0.0087464
        k(   98) = (   0.2142857   0.4285714   0.4285714), wk =   0.0087464
        k(   99) = (   0.2142857   0.4285714  -0.5000000), wk =   0.0087464
        k(  100) = (   0.2142857  -0.5000000  -0.5000000), wk =   0.0021866
        k(  101) = (   0.2857143   0.2857143   0.2857143), wk =   0.0029155
        k(  102) = (   0.2857143   0.2857143   0.3571429), wk =   0.0087464
        k(  103) = (   0.2857143   0.2857143   0.4285714), wk =   0.0087464
        k(  104) = (   0.2857143   0.2857143  -0.5000000), wk =   0.0043732
        k(  105) = (   0.2857143   0.3571429   0.3571429), wk =   0.0087464
        k(  106) = (   0.2857143   0.3571429   0.4285714), wk =   0.0174927
        k(  107) = (   0.2857143   0.3571429  -0.5000000), wk =   0.0087464
        k(  108) = (   0.2857143   0.4285714   0.4285714), wk =   0.0087464
        k(  109) = (   0.2857143   0.4285714  -0.5000000), wk =   0.0087464
        k(  110) = (   0.2857143  -0.5000000  -0.5000000), wk =   0.0021866
        k(  111) = (   0.3571429   0.3571429   0.3571429), wk =   0.0029155
        k(  112) = (   0.3571429   0.3571429   0.4285714), wk =   0.0087464
        k(  113) = (   0.3571429   0.3571429  -0.5000000), wk =   0.0043732
        k(  114) = (   0.3571429   0.4285714   0.4285714), wk =   0.0087464
        k(  115) = (   0.3571429   0.4285714  -0.5000000), wk =   0.0087464
        k(  116) = (   0.3571429  -0.5000000  -0.5000000), wk =   0.0021866
        k(  117) = (   0.4285714   0.4285714   0.4285714), wk =   0.0029155
        k(  118) = (   0.4285714   0.4285714  -0.5000000), wk =   0.0043732
        k(  119) = (   0.4285714  -0.5000000  -0.5000000), wk =   0.0021866
        k(  120) = (  -0.5000000  -0.5000000  -0.5000000), wk =   0.0003644

     Dense  grid:    81313 G-vectors     FFT dimensions: (  54,  54,  54)

     Dynamical RAM for                 wfc:       0.53 MB

     Dynamical RAM for     wfc (w. buffer):      32.56 MB

     Dynamical RAM for           str. fact:       0.16 MB

     Dynamical RAM for           local pot:       0.00 MB

     Dynamical RAM for          nlocal pot:       1.55 MB

     Dynamical RAM for                qrad:       6.89 MB

     Dynamical RAM for          rho,v,vnew:       1.00 MB

     Dynamical RAM for               rhoin:       0.33 MB

     Dynamical RAM for            rho*nmix:       2.48 MB

     Dynamical RAM for           G-vectors:       0.33 MB

     Dynamical RAM for          h,s,v(r/c):       0.55 MB

     Dynamical RAM for          <psi|beta>:       0.13 MB

     Dynamical RAM for                 psi:       1.07 MB

     Dynamical RAM for                hpsi:       1.07 MB

     Dynamical RAM for                spsi:       1.07 MB

     Dynamical RAM for      wfcinit/wfcrot:       3.27 MB

     Dynamical RAM for           addusdens:      10.97 MB

     Dynamical RAM for          addusforce:      11.12 MB

     Dynamical RAM for         addusstress:      11.37 MB

     Estimated static dynamical RAM per process >      43.59 MB

     Estimated max dynamical RAM per process >      57.43 MB

     Estimated total dynamical RAM >       3.47 GB
     Generating pointlists ...
     new r_m :   0.2063 (alat units)  1.9484 (a.u.) for type    1
     new r_m :   0.2063 (alat units)  1.9484 (a.u.) for type    2

     Initial potential from superposition of free atoms

     starting charge      91.9793, renormalised to      92.0000
     Starting wfcs are  144 randomized atomic wfcs
     Checking if some PAW data can be deallocated... 
       PAW data deallocated on   32 nodes for type:  1

     total cpu time spent up to now is       52.9 secs

     Self-consistent Calculation

     iteration #  1     ecut=    80.00 Ry     beta= 0.40
     Davidson diagonalization with overlap

---- Real-time Memory Report at c_bands before calling an iterative solver
           316 MiB given to the printing process from OS
             0 MiB allocation reported by mallinfo(arena+hblkhd)
        309540 MiB available memory on the node where the printing process lives
------------------
     ethr =  1.00E-02,  avg # of iterations =  1.0

     total cpu time spent up to now is       83.9 secs

     total energy              =   -2817.39324118 Ry
     estimated scf accuracy    <       3.04446869 Ry

     total magnetization       =    18.00 Bohr mag/cell
     absolute magnetization    =    18.48 Bohr mag/cell

     iteration #  2     ecut=    80.00 Ry     beta= 0.40
     Davidson diagonalization with overlap

---- Real-time Memory Report at c_bands before calling an iterative solver
           341 MiB given to the printing process from OS
             0 MiB allocation reported by mallinfo(arena+hblkhd)
        311619 MiB available memory on the node where the printing process lives
------------------
     ethr =  3.31E-03,  avg # of iterations =  5.0

     total cpu time spent up to now is      126.0 secs

     total energy              =   -2815.87444609 Ry
     estimated scf accuracy    <      42.07298631 Ry

     total magnetization       =    17.83 Bohr mag/cell
     absolute magnetization    =    18.90 Bohr mag/cell

     iteration #  3     ecut=    80.00 Ry     beta= 0.40
     Davidson diagonalization with overlap

---- Real-time Memory Report at c_bands before calling an iterative solver
           342 MiB given to the printing process from OS
             0 MiB allocation reported by mallinfo(arena+hblkhd)
        311667 MiB available memory on the node where the printing process lives
------------------
     ethr =  3.31E-03,  avg # of iterations =  7.3

     total cpu time spent up to now is      171.9 secs

     total energy              =   -2816.55527705 Ry
     estimated scf accuracy    <      55.61678515 Ry

     total magnetization       =    12.98 Bohr mag/cell
     absolute magnetization    =    12.98 Bohr mag/cell

     iteration #  4     ecut=    80.00 Ry     beta= 0.40
     Davidson diagonalization with overlap

---- Real-time Memory Report at c_bands before calling an iterative solver
           343 MiB given to the printing process from OS
             0 MiB allocation reported by mallinfo(arena+hblkhd)
        310229 MiB available memory on the node where the printing process lives
------------------
     ethr =  3.31E-03,  avg # of iterations =  7.2

     total cpu time spent up to now is      217.0 secs

     total energy              =   -2818.70699210 Ry
     estimated scf accuracy    <       2.00672596 Ry

     total magnetization       =    18.00 Bohr mag/cell
     absolute magnetization    =    22.87 Bohr mag/cell

     iteration #  5     ecut=    80.00 Ry     beta= 0.40
     Davidson diagonalization with overlap

---- Real-time Memory Report at c_bands before calling an iterative solver
           344 MiB given to the printing process from OS
             0 MiB allocation reported by mallinfo(arena+hblkhd)
        309690 MiB available memory on the node where the printing process lives
------------------
     ethr =  2.18E-03,  avg # of iterations =  2.7

     total cpu time spent up to now is      252.7 secs

     total energy              =   -2818.94093896 Ry
     estimated scf accuracy    <       1.85817038 Ry

     total magnetization       =    18.00 Bohr mag/cell
     absolute magnetization    =    22.34 Bohr mag/cell

     iteration #  6     ecut=    80.00 Ry     beta= 0.40
     Davidson diagonalization with overlap

---- Real-time Memory Report at c_bands before calling an iterative solver
           344 MiB given to the printing process from OS
             0 MiB allocation reported by mallinfo(arena+hblkhd)
        311426 MiB available memory on the node where the printing process lives
------------------
     ethr =  2.02E-03,  avg # of iterations =  2.7

     total cpu time spent up to now is      290.0 secs

     total energy              =   -2819.43624768 Ry
     estimated scf accuracy    <       1.84808372 Ry

     total magnetization       =    18.00 Bohr mag/cell
     absolute magnetization    =    22.76 Bohr mag/cell

     iteration #  7     ecut=    80.00 Ry     beta= 0.40
     Davidson diagonalization with overlap

---- Real-time Memory Report at c_bands before calling an iterative solver
           345 MiB given to the printing process from OS
             0 MiB allocation reported by mallinfo(arena+hblkhd)
        311417 MiB available memory on the node where the printing process lives
------------------
     ethr =  2.01E-03,  avg # of iterations =  3.2

     total cpu time spent up to now is      325.7 secs

     total energy              =   -2818.96649201 Ry
     estimated scf accuracy    <      21.12280760 Ry

     total magnetization       =    14.14 Bohr mag/cell
     absolute magnetization    =    18.79 Bohr mag/cell

     iteration #  8     ecut=    80.00 Ry     beta= 0.40
     Davidson diagonalization with overlap

---- Real-time Memory Report at c_bands before calling an iterative solver
           345 MiB given to the printing process from OS
             0 MiB allocation reported by mallinfo(arena+hblkhd)
        311488 MiB available memory on the node where the printing process lives
------------------
     ethr =  2.01E-03,  avg # of iterations =  3.4
     Minimization algorithm failed to find Fermi energy: reverting to bisection
     Possible cause: smearing is larger than the electronic band-gap.

     total cpu time spent up to now is      363.3 secs

     total energy              =   -2819.26980453 Ry
     estimated scf accuracy    <       0.73846295 Ry

     total magnetization       =    13.99 Bohr mag/cell
     absolute magnetization    =    27.91 Bohr mag/cell

     iteration #  9     ecut=    80.00 Ry     beta= 0.40
     Davidson diagonalization with overlap

---- Real-time Memory Report at c_bands before calling an iterative solver
           346 MiB given to the printing process from OS
             0 MiB allocation reported by mallinfo(arena+hblkhd)
        311136 MiB available memory on the node where the printing process lives
------------------
     ethr =  8.03E-04,  avg # of iterations =  2.2

     total cpu time spent up to now is      396.3 secs

     total energy              =   -2819.34979244 Ry
     estimated scf accuracy    <       0.34942288 Ry

     total magnetization       =    17.89 Bohr mag/cell
     absolute magnetization    =    24.29 Bohr mag/cell

     iteration # 10     ecut=    80.00 Ry     beta= 0.40
     Davidson diagonalization with overlap

---- Real-time Memory Report at c_bands before calling an iterative solver
           346 MiB given to the printing process from OS
             0 MiB allocation reported by mallinfo(arena+hblkhd)
        311470 MiB available memory on the node where the printing process lives
------------------
     ethr =  3.80E-04,  avg # of iterations =  5.6

     total cpu time spent up to now is      439.5 secs

     total energy              =   -2819.44807999 Ry
     estimated scf accuracy    <       0.54182596 Ry

     total magnetization       =    17.82 Bohr mag/cell
     absolute magnetization    =    24.10 Bohr mag/cell

     iteration # 11     ecut=    80.00 Ry     beta= 0.40
     Davidson diagonalization with overlap

---- Real-time Memory Report at c_bands before calling an iterative solver
           346 MiB given to the printing process from OS
             0 MiB allocation reported by mallinfo(arena+hblkhd)
        311490 MiB available memory on the node where the printing process lives
------------------
     ethr =  3.80E-04,  avg # of iterations =  4.4

     total cpu time spent up to now is      477.1 secs

     total energy              =   -2819.40466544 Ry
     estimated scf accuracy    <       2.53568933 Ry

     total magnetization       =    17.20 Bohr mag/cell
     absolute magnetization    =    24.16 Bohr mag/cell

     iteration # 12     ecut=    80.00 Ry     beta= 0.40
     Davidson diagonalization with overlap

---- Real-time Memory Report at c_bands before calling an iterative solver
           346 MiB given to the printing process from OS
             0 MiB allocation reported by mallinfo(arena+hblkhd)
        305801 MiB available memory on the node where the printing process lives
------------------
     ethr =  3.80E-04,  avg # of iterations =  3.3

     total cpu time spent up to now is      514.6 secs

     total energy              =   -2819.49381778 Ry
     estimated scf accuracy    <       0.70393665 Ry

     total magnetization       =    17.82 Bohr mag/cell
     absolute magnetization    =    23.89 Bohr mag/cell

     iteration # 13     ecut=    80.00 Ry     beta= 0.40
     Davidson diagonalization with overlap

---- Real-time Memory Report at c_bands before calling an iterative solver
           347 MiB given to the printing process from OS
             0 MiB allocation reported by mallinfo(arena+hblkhd)
        306809 MiB available memory on the node where the printing process lives
------------------
     ethr =  3.80E-04,  avg # of iterations =  4.3

     total cpu time spent up to now is      552.0 secs

     total energy              =   -2819.51453948 Ry
     estimated scf accuracy    <       0.45795125 Ry

     total magnetization       =    18.04 Bohr mag/cell
     absolute magnetization    =    23.99 Bohr mag/cell

     iteration # 14     ecut=    80.00 Ry     beta= 0.40
     Davidson diagonalization with overlap

---- Real-time Memory Report at c_bands before calling an iterative solver
           347 MiB given to the printing process from OS
             0 MiB allocation reported by mallinfo(arena+hblkhd)
        308796 MiB available memory on the node where the printing process lives
------------------
     ethr =  3.80E-04,  avg # of iterations =  1.2

     total cpu time spent up to now is      583.2 secs

     total energy              =   -2819.51540920 Ry
     estimated scf accuracy    <       0.46294849 Ry

     total magnetization       =    17.99 Bohr mag/cell
     absolute magnetization    =    24.06 Bohr mag/cell

     iteration # 15     ecut=    80.00 Ry     beta= 0.40
     Davidson diagonalization with overlap

---- Real-time Memory Report at c_bands before calling an iterative solver
           347 MiB given to the printing process from OS
             0 MiB allocation reported by mallinfo(arena+hblkhd)
        311401 MiB available memory on the node where the printing process lives
------------------
     ethr =  3.80E-04,  avg # of iterations =  1.2
